
.Version 9.6.2 of ABINIT 
.(MPI version, prepared for a x86_64_linux_gnu9.4 computer) 

.Copyright (C) 1998-2021 ABINIT group . 
 ABINIT comes with ABSOLUTELY NO WARRANTY.
 It is free software, and you are welcome to redistribute it
 under certain conditions (GNU General Public License,
 see ~abinit/COPYING or http://www.gnu.org/copyleft/gpl.txt).

 ABINIT is a project of the Universite Catholique de Louvain,
 Corning Inc. and other collaborators, see ~abinit/doc/developers/contributors.txt .
 Please read https://docs.abinit.org/theory/acknowledgments for suggested
 acknowledgments of the ABINIT effort.
 For more information, see https://www.abinit.org .

.Starting date : Thu 20 Oct 2022.
- ( at 19h59 )
  
- input  file    -> InAs.in
- output file    -> InAs.out
- root for input  files -> testi
- root for output files -> testo


 DATASET    1 : space group Cm (#  8); Bravais mC (1-face-center monocl.)
================================================================================
 Values of the parameters that define the memory need for DATASET  1.
     intxc =       0    ionmov =       0      iscf =       7    lmnmax =       1
     lnmax =       1     mgfft =      16  mpssoang =       2    mqgrid =    3001
     natom =       2  nloc_mem =       1    nspden =       1   nspinor =       1
    nsppol =       1      nsym =       2    n1xccc =    2501    ntypat =       2
    occopt =       1   xclevel =       1
-    mband =           5        mffmem =           1         mkmem =          72
       mpw =         146          nfft =        4096          nkpt =          72
================================================================================
P This job should need less than                       2.961 Mbytes of memory.
  Rough estimation (10% accuracy) of disk space for files :
_ WF disk file :      0.804 Mbytes ; DEN or POT disk file :      0.033 Mbytes.
================================================================================


 DATASET    2 : space group Cm (#  8); Bravais mC (1-face-center monocl.)
================================================================================
 Values of the parameters that define the memory need for DATASET  2.
     intxc =       0    ionmov =       0      iscf =      -2    lmnmax =       1
     lnmax =       1     mgfft =      16  mpssoang =       2    mqgrid =    3001
     natom =       2  nloc_mem =       1    nspden =       1   nspinor =       1
    nsppol =       1      nsym =       2    n1xccc =    2501    ntypat =       2
    occopt =       1   xclevel =       1
-    mband =           8        mffmem =           1         mkmem =          40
       mpw =         145          nfft =        4096          nkpt =          40
================================================================================
P This job should need less than                       2.309 Mbytes of memory.
  Rough estimation (10% accuracy) of disk space for files :
_ WF disk file :      0.710 Mbytes ; DEN or POT disk file :      0.033 Mbytes.
================================================================================

--------------------------------------------------------------------------------
------------- Echo of variables that govern the present computation ------------
--------------------------------------------------------------------------------
-
- outvars: echo of selected default values                                      
-   iomode0 =  0 , fftalg0 =112 , wfoptalg0 =  0
-
- outvars: echo of global parameters not present in the input file              
-  max_nthreads =    0
-
 -outvars: echo values of preprocessed input variables --------
            acell      1.1448527831E+01  1.1448527831E+01  1.1051685343E+01 Bohr
              amu      1.14820000E+02  7.49215900E+01
           diemac      1.20000000E+01
             ecut      4.00000000E+00 Hartree
           enunit1          0
           enunit2          1
-          fftalg         112
           getden1          0
           getden2         -1
             iscf1          7
             iscf2         -2
           istwfk2       1    0    0    0    0    0    0    0    0    0
                         1    0    0    0    0    0    0    0    0    0
                         0    0    0    0    0    0    0    0    0    0
                         0    0    0    0    0    0    0    0    0    0
                       outvar_i_n : Printing only first  50 k-points.
           jdtset        1    2
              kpt1     0.00000000E+00 -1.25000000E-01  0.00000000E+00
                       0.00000000E+00 -3.75000000E-01  0.00000000E+00
                       1.25000000E-01 -2.50000000E-01  0.00000000E+00
                       0.00000000E+00 -2.50000000E-01  1.25000000E-01
                       1.25000000E-01 -1.25000000E-01  1.25000000E-01
                       0.00000000E+00 -1.25000000E-01  2.50000000E-01
                       1.25000000E-01  5.00000000E-01  0.00000000E+00
                       2.50000000E-01 -3.75000000E-01  0.00000000E+00
                       0.00000000E+00  5.00000000E-01  1.25000000E-01
                       1.25000000E-01 -3.75000000E-01  1.25000000E-01
                       2.50000000E-01 -2.50000000E-01  1.25000000E-01
                       3.75000000E-01 -1.25000000E-01  1.25000000E-01
                       0.00000000E+00 -3.75000000E-01  2.50000000E-01
                       1.25000000E-01 -2.50000000E-01  2.50000000E-01
                       2.50000000E-01 -1.25000000E-01  2.50000000E-01
                       0.00000000E+00 -2.50000000E-01  3.75000000E-01
                       1.25000000E-01 -1.25000000E-01  3.75000000E-01
                       0.00000000E+00 -1.25000000E-01  5.00000000E-01
                       1.25000000E-01  2.50000000E-01  0.00000000E+00
                       2.50000000E-01  3.75000000E-01  0.00000000E+00
                       3.75000000E-01  5.00000000E-01  0.00000000E+00
                       0.00000000E+00  2.50000000E-01  1.25000000E-01
                       1.25000000E-01  3.75000000E-01  1.25000000E-01
                       2.50000000E-01  5.00000000E-01  1.25000000E-01
                       3.75000000E-01 -3.75000000E-01  1.25000000E-01
                       5.00000000E-01 -2.50000000E-01  1.25000000E-01
                      -3.75000000E-01 -1.25000000E-01  1.25000000E-01
                       0.00000000E+00  3.75000000E-01  2.50000000E-01
                       1.25000000E-01  5.00000000E-01  2.50000000E-01
                       2.50000000E-01 -3.75000000E-01  2.50000000E-01
                       3.75000000E-01 -2.50000000E-01  2.50000000E-01
                       5.00000000E-01 -1.25000000E-01  2.50000000E-01
                       0.00000000E+00  5.00000000E-01  3.75000000E-01
                       1.25000000E-01 -3.75000000E-01  3.75000000E-01
                       2.50000000E-01 -2.50000000E-01  3.75000000E-01
                       3.75000000E-01 -1.25000000E-01  3.75000000E-01
                       0.00000000E+00 -3.75000000E-01  5.00000000E-01
                       1.25000000E-01 -2.50000000E-01  5.00000000E-01
                       0.00000000E+00 -2.50000000E-01 -3.75000000E-01
                       0.00000000E+00 -1.25000000E-01 -2.50000000E-01
                       0.00000000E+00  0.00000000E+00  1.25000000E-01
                       1.25000000E-01  1.25000000E-01  1.25000000E-01
                       2.50000000E-01  2.50000000E-01  1.25000000E-01
                       3.75000000E-01  3.75000000E-01  1.25000000E-01
                       5.00000000E-01  5.00000000E-01  1.25000000E-01
                      -3.75000000E-01 -3.75000000E-01  1.25000000E-01
                      -2.50000000E-01 -2.50000000E-01  1.25000000E-01
                      -1.25000000E-01 -1.25000000E-01  1.25000000E-01
                       1.25000000E-01  2.50000000E-01  2.50000000E-01
                       2.50000000E-01  3.75000000E-01  2.50000000E-01
              kpt2     5.00000000E-01  0.00000000E+00  0.00000000E+00
                       4.50000000E-01  0.00000000E+00  0.00000000E+00
                       4.00000000E-01  0.00000000E+00  0.00000000E+00
                       3.50000000E-01  0.00000000E+00  0.00000000E+00
                       3.00000000E-01  0.00000000E+00  0.00000000E+00
                       2.50000000E-01  0.00000000E+00  0.00000000E+00
                       2.00000000E-01  0.00000000E+00  0.00000000E+00
                       1.50000000E-01  0.00000000E+00  0.00000000E+00
                       1.00000000E-01  0.00000000E+00  0.00000000E+00
                       5.00000000E-02  0.00000000E+00  0.00000000E+00
                       0.00000000E+00  0.00000000E+00  0.00000000E+00
                       2.08333333E-02  4.16666667E-02  6.25000000E-02
                       4.16666667E-02  8.33333333E-02  1.25000000E-01
                       6.25000000E-02  1.25000000E-01  1.87500000E-01
                       8.33333333E-02  1.66666667E-01  2.50000000E-01
                       1.04166667E-01  2.08333333E-01  3.12500000E-01
                       1.25000000E-01  2.50000000E-01  3.75000000E-01
                       1.45833333E-01  2.91666667E-01  4.37500000E-01
                       1.66666667E-01  3.33333333E-01  5.00000000E-01
                       1.87500000E-01  3.75000000E-01  5.62500000E-01
                       2.08333333E-01  4.16666667E-01  6.25000000E-01
                       2.29166667E-01  4.58333333E-01  6.87500000E-01
                       2.50000000E-01  5.00000000E-01  7.50000000E-01
                       2.57352941E-01  4.92647059E-01  7.50000000E-01
                       2.64705882E-01  4.85294118E-01  7.50000000E-01
                       2.72058824E-01  4.77941176E-01  7.50000000E-01
                       2.79411765E-01  4.70588235E-01  7.50000000E-01
                       2.86764706E-01  4.63235294E-01  7.50000000E-01
                       2.94117647E-01  4.55882353E-01  7.50000000E-01
                       3.01470588E-01  4.48529412E-01  7.50000000E-01
                       3.08823529E-01  4.41176471E-01  7.50000000E-01
                       3.16176471E-01  4.33823529E-01  7.50000000E-01
                       3.23529412E-01  4.26470588E-01  7.50000000E-01
                       3.30882353E-01  4.19117647E-01  7.50000000E-01
                       3.38235294E-01  4.11764706E-01  7.50000000E-01
                       3.45588235E-01  4.04411765E-01  7.50000000E-01
                       3.52941176E-01  3.97058824E-01  7.50000000E-01
                       3.60294118E-01  3.89705882E-01  7.50000000E-01
                       3.67647059E-01  3.82352941E-01  7.50000000E-01
                       3.75000000E-01  3.75000000E-01  7.50000000E-01
                       outvar_i_n : Printing only first  50 k-points.
           kptopt1          1
           kptopt2         -3
         kptrlatt        4    4   -4     -4    4    4      4   -4    4
          kptrlen1     4.50074250E+01
          kptrlen2     3.00000000E+01
P           mkmem1         72
P           mkmem2         40
            natom           2
            nband1          5
            nband2          8
           nbdbuf1          0
           nbdbuf2          2
           ndtset           2
            ngfft          16      16      16
             nkpt1         72
             nkpt2         40
            nstep          20
             nsym           2
           ntypat           2
              occ      2.000000  2.000000  2.000000  2.000000  0.000000
            rprim      0.0000000000E+00  5.0000000000E-01  5.0000000000E-01
                       5.0000000000E-01  0.0000000000E+00  5.0000000000E-01
                       5.0000000000E-01  5.0000000000E-01  0.0000000000E+00
           shiftk1    -5.00000000E-01  5.00000000E-01  5.00000000E-01
           shiftk2     5.00000000E-01  5.00000000E-01  5.00000000E-01
          spgroup           8
           symrel      1  0  0   0  1  0   0  0  1       0  1  0   1  0  0   0  0  1
           toldfe1     1.00000000E-06 Hartree
           toldfe2     0.00000000E+00 Hartree
           tolwfr1     0.00000000E+00
           tolwfr2     1.00000000E-12
            typat      1  2
              wtk1       0.01563    0.01563    0.01563    0.01563    0.01563    0.01563
                         0.01563    0.01563    0.01563    0.01563    0.01563    0.01563
                         0.01563    0.01563    0.01563    0.01563    0.01563    0.01563
                         0.01563    0.01563    0.01563    0.01563    0.01563    0.01563
                         0.01563    0.01563    0.01563    0.01563    0.01563    0.01563
                         0.01563    0.01563    0.01563    0.01563    0.01563    0.01563
                         0.01563    0.01563    0.01563    0.01563    0.00781    0.00781
                         0.00781    0.00781    0.00781    0.00781    0.00781    0.00781
                         0.01563    0.01563
              wtk2       1.00000    1.00000    1.00000    1.00000    1.00000    1.00000
                         1.00000    1.00000    1.00000    1.00000    1.00000    1.00000
                         1.00000    1.00000    1.00000    1.00000    1.00000    1.00000
                         1.00000    1.00000    1.00000    1.00000    1.00000    1.00000
                         1.00000    1.00000    1.00000    1.00000    1.00000    1.00000
                         1.00000    1.00000    1.00000    1.00000    1.00000    1.00000
                         1.00000    1.00000    1.00000    1.00000
                       outvars : Printing only first  50 k-points.
           xangst      0.0000000000E+00  0.0000000000E+00  0.0000000000E+00
                       1.4883250000E+00  1.4883250000E+00  1.5145750000E+00
            xcart      0.0000000000E+00  0.0000000000E+00  0.0000000000E+00
                       2.8125266467E+00  2.8125266467E+00  2.8621319577E+00
             xred      0.0000000000E+00  0.0000000000E+00  0.0000000000E+00
                       2.5000000000E-01  2.5000000000E-01  2.5000000000E-01
            znucl       49.00000   33.00000

================================================================================

 chkinp: Checking input parameters for consistency, jdtset=   1.

 chkinp: Checking input parameters for consistency, jdtset=   2.

================================================================================
== DATASET  1 ==================================================================
-   mpi_nproc: 1, omp_nthreads: -1 (-1 if OMP is not activated)


--- !DatasetInfo
iteration_state: {dtset: 1, }
dimensions: {natom: 2, nkpt: 72, mband: 5, nsppol: 1, nspinor: 1, nspden: 1, mpw: 146, }
cutoff_energies: {ecut:   4.0, pawecutdg:  -1.0, }
electrons: {nelect:   8.00000000E+00, charge:   0.00000000E+00, occopt:   1.00000000E+00, tsmear:   1.00000000E-02, }
meta: {optdriver: 0, ionmov: 0, optcell: 0, iscf: 7, paral_kgb: 0, }
...

 Exchange-correlation functional for the present dataset will be:
  LDA: new Teter (4/93) with spin-polarized option - ixc=1
 Citation for XC functional:
  S. Goedecker, M. Teter, J. Huetter, PRB 54, 1703 (1996)

 Real(R)+Recip(G) space primitive vectors, cartesian coordinates (Bohr,Bohr^-1):
 R(1)=  0.0000000  5.7242639  5.7242639  G(1)= -0.0873475  0.0873475  0.0873475
 R(2)=  5.7242639  0.0000000  5.7242639  G(2)=  0.0873475 -0.0873475  0.0873475
 R(3)=  5.5258427  5.5258427  0.0000000  G(3)=  0.0904839  0.0904839 -0.0904839
 Unit cell volume ucvol=  3.6213275E+02 bohr^3
 Angles (23,13,12)=  6.00000000E+01  6.00000000E+01  6.00000000E+01 degrees

 getcut: wavevector=  0.0000  0.0000  0.0000  ngfft=  16  16  16
         ecut(hartree)=      4.000   => boxcut(ratio)=   2.19581

--- Pseudopotential description ------------------------------------------------
- pspini: atom type   1  psp file is 49in.pspnc
- pspatm: opening atomic psp file    49in.pspnc
-  Troullier-Martins psp for element  In        Thu Oct 27 17:43:15 EDT 1994
- 49.00000   3.00000    940714                znucl, zion, pspdat
    1    1    1    0      2001   0.00000      pspcod,pspxc,lmax,lloc,mmax,r2well
    0   8.236  12.726    0   2.1883691        l,e99.0,e99.9,nproj,rcpsp
   0.00000000   0.00000000   0.00000000   0.00000000     rms, ekb1, ekb2, epsatm
    1   3.329   5.528    1   2.6396875        l,e99.0,e99.9,nproj,rcpsp
   0.00000000   0.00000000   0.00000000   0.00000000     rms, ekb1, ekb2, epsatm
    3.24177624483359    0.09532364101432    2.83397955305767   rchrg,fchrg,qchrg
  pspatm : epsatm=   39.73038112
         --- l  ekb(1:nproj) -->
             1    0.789729
 pspatm: atomic psp has been read  and splines computed

- pspini: atom type   2  psp file is 33as.pspnc
- pspatm: opening atomic psp file    33as.pspnc
-  Troullier-Martins psp for element  As        Thu Oct 27 17:37:14 EDT 1994
- 33.00000   5.00000    940714                znucl, zion, pspdat
    1    1    1    1      2001   0.00000      pspcod,pspxc,lmax,lloc,mmax,r2well
    0   4.772  10.829    1   2.5306160        l,e99.0,e99.9,nproj,rcpsp
   0.00000000   0.00000000   0.00000000   0.00000000     rms, ekb1, ekb2, epsatm
    1   2.745   5.580    0   2.5306160        l,e99.0,e99.9,nproj,rcpsp
   0.00000000   0.00000000   0.00000000   0.00000000     rms, ekb1, ekb2, epsatm
    2.05731715564010    0.36322996461007    2.76014815959125   rchrg,fchrg,qchrg
  pspatm : epsatm=   27.20579911
         --- l  ekb(1:nproj) -->
             0    0.838751
 pspatm: atomic psp has been read  and splines computed

   5.35489442E+02                                ecore*ucvol(ha*bohr**3)
--------------------------------------------------------------------------------

_setup2: Arith. and geom. avg. npw (full set) are     138.438     138.396

================================================================================

--- !BeginCycle
iteration_state: {dtset: 1, }
solver: {iscf: 7, nstep: 20, nline: 4, wfoptalg: 0, }
tolerances: {toldfe: 1.00E-06, }
...

     iter   Etot(hartree)      deltaE(h)  residm     vres2
 ETOT  1  -10.594799317488    -1.059E+01 1.426E-02 3.571E+00
 ETOT  2  -10.601873007618    -7.074E-03 9.889E-05 2.011E-01
 ETOT  3  -10.602114863471    -2.419E-04 2.793E-05 1.161E-02
 ETOT  4  -10.602129852936    -1.499E-05 2.229E-06 6.900E-04
 ETOT  5  -10.602130725307    -8.724E-07 7.080E-07 2.102E-06
 ETOT  6  -10.602130727598    -2.291E-09 4.934E-08 1.066E-07

 At SCF step    6, etot is converged : 
  for the second time, diff in etot=  2.291E-09 < toldfe=  1.000E-06

 Cartesian components of stress tensor (hartree/bohr^3)
  sigma(1 1)=  3.59509010E-04  sigma(3 2)=  2.93699641E-05
  sigma(2 2)=  3.59509010E-04  sigma(3 1)=  2.93699641E-05
  sigma(3 3)=  3.89278478E-04  sigma(2 1)= -5.52634833E-05


--- !ResultsGS
iteration_state: {dtset: 1, }
comment   : Summary of ground state results
lattice_vectors:
- [  0.0000000,   5.7242639,   5.7242639, ]
- [  5.7242639,   0.0000000,   5.7242639, ]
- [  5.5258427,   5.5258427,   0.0000000, ]
lattice_lengths: [   8.09533,    8.09533,    7.81472, ]
lattice_angles: [ 60.000,  60.000,  60.000, ] # degrees, (23, 13, 12)
lattice_volume:   3.6213275E+02
convergence: {deltae: -2.291E-09, res2:  1.066E-07, residm:  4.934E-08, diffor: null, }
etotal    :  -1.06021307E+01
entropy   :   0.00000000E+00
fermie    :  -5.80508736E-02
cartesian_stress_tensor: # hartree/bohr^3
- [  3.59509010E-04,  -5.52634833E-05,   2.93699641E-05, ]
- [ -5.52634833E-05,   3.59509010E-04,   2.93699641E-05, ]
- [  2.93699641E-05,   2.93699641E-05,   3.89278478E-04, ]
pressure_GPa:  -1.0869E+01
xred      :
- [  0.0000E+00,   0.0000E+00,   0.0000E+00, In]
- [  2.5000E-01,   2.5000E-01,   2.5000E-01, As]
cartesian_forces: # hartree/bohr
- [  1.48237074E-03,   1.48237074E-03,  -2.45964899E-03, ]
- [ -1.48237074E-03,  -1.48237074E-03,   2.45964899E-03, ]
force_length_stats: {min:   3.23182907E-03, max:   3.23182907E-03, mean:   3.23182907E-03, }
...

 Integrated electronic density in atomic spheres:
 ------------------------------------------------
 Atom  Sphere_radius  Integrated_density
    1        2.00000          0.61776679
    2        2.00000          2.36493863
================================================================================

 ----iterations are completed or convergence reached----

 Mean square residual over all n,k,spin=   46.798E-11; max=  49.340E-09
 reduced coordinates (array xred) for    2 atoms
       0.000000000000      0.000000000000      0.000000000000
       0.250000000000      0.250000000000      0.250000000000
 rms dE/dt=  1.0504E-02; max dE/dt=  1.6382E-02; dE/dt below (all hartree)
    1       0.005594560616      0.005594560616     -0.016383239243
    2      -0.005593836713     -0.005593836713      0.016382150608

 cartesian coordinates (angstrom) at end:
    1      0.00000000000000     0.00000000000000     0.00000000000000
    2      1.48832500000000     1.48832500000000     1.51457500000000

 cartesian forces (hartree/bohr) at end:
    1      0.00148237073502     0.00148237073502    -0.00245964899246
    2     -0.00148237073502    -0.00148237073502     0.00245964899246
 frms,max,avg= 1.8658974E-03 2.4596490E-03   4.925E-08  4.925E-08 -1.125E-07 h/b

 cartesian forces (eV/Angstrom) at end:
    1      0.07622656161067     0.07622656161067    -0.12648022592120
    2     -0.07622656161067    -0.07622656161067     0.12648022592120
 frms,max,avg= 9.5948293E-02 1.2648023E-01   2.533E-06  2.533E-06 -5.784E-06 e/A
 length scales= 11.448527830861 11.448527830861 11.051685342955 bohr
              =  6.058300000000  6.058300000000  5.848300000000 angstroms
 prteigrs : about to open file testo_DS1_EIG
 Fermi (or HOMO) energy (hartree) =  -0.05805   Average Vxc (hartree)=  -0.33824
 Eigenvalues (hartree) for nkpt=  72  k points:
 kpt#   1, nband=  5, wtk=  0.01563, kpt=  0.0000 -0.1250  0.0000 (reduced coord)
  -0.46749   -0.11813   -0.06347   -0.05805    0.00445
 prteigrs : prtvol=0 or 1, do not print more k-points.


--- !EnergyTerms
iteration_state     : {dtset: 1, }
comment             : Components of total free energy in Hartree
kinetic             :  2.77691862547988E+00
hartree             :  9.31068284520943E-01
xc                  : -4.91355725446836E+00
Ewald energy        : -7.94947110198946E+00
psp_core            :  1.47871031974817E+00
local_psp           : -3.11053746441065E+00
non_local_psp       :  1.84737863521279E-01
total_energy        : -1.06021307275982E+01
total_energy_eV     : -2.88498648962576E+02
band_energy         : -1.74935000985419E+00
...


 Cartesian components of stress tensor (hartree/bohr^3)
  sigma(1 1)=  3.59509010E-04  sigma(3 2)=  2.93699641E-05
  sigma(2 2)=  3.59509010E-04  sigma(3 1)=  2.93699641E-05
  sigma(3 3)=  3.89278478E-04  sigma(2 1)= -5.52634833E-05

-Cartesian components of stress tensor (GPa)         [Pressure= -1.0869E+01 GPa]
- sigma(1 1)=  1.05771185E+01  sigma(3 2)=  8.64094032E-01
- sigma(2 2)=  1.05771185E+01  sigma(3 1)=  8.64094032E-01
- sigma(3 3)=  1.14529663E+01  sigma(2 1)= -1.62590754E+00

================================================================================
== DATASET  2 ==================================================================
-   mpi_nproc: 1, omp_nthreads: -1 (-1 if OMP is not activated)


--- !DatasetInfo
iteration_state: {dtset: 2, }
dimensions: {natom: 2, nkpt: 40, mband: 8, nsppol: 1, nspinor: 1, nspden: 1, mpw: 145, }
cutoff_energies: {ecut:   4.0, pawecutdg:  -1.0, }
electrons: {nelect:   8.00000000E+00, charge:   0.00000000E+00, occopt:   1.00000000E+00, tsmear:   1.00000000E-02, }
meta: {optdriver: 0, ionmov: 0, optcell: 0, iscf: -2, paral_kgb: 0, }
...

 mkfilename : getden/=0, take file _DEN from output of DATASET   1.

 Exchange-correlation functional for the present dataset will be:
  LDA: new Teter (4/93) with spin-polarized option - ixc=1
 Citation for XC functional:
  S. Goedecker, M. Teter, J. Huetter, PRB 54, 1703 (1996)

 Real(R)+Recip(G) space primitive vectors, cartesian coordinates (Bohr,Bohr^-1):
 R(1)=  0.0000000  5.7242639  5.7242639  G(1)= -0.0873475  0.0873475  0.0873475
 R(2)=  5.7242639  0.0000000  5.7242639  G(2)=  0.0873475 -0.0873475  0.0873475
 R(3)=  5.5258427  5.5258427  0.0000000  G(3)=  0.0904839  0.0904839 -0.0904839
 Unit cell volume ucvol=  3.6213275E+02 bohr^3
 Angles (23,13,12)=  6.00000000E+01  6.00000000E+01  6.00000000E+01 degrees

 getcut: wavevector=  0.0000  0.0000  0.0000  ngfft=  16  16  16
         ecut(hartree)=      4.000   => boxcut(ratio)=   2.19581
--------------------------------------------------------------------------------


================================================================================
 prteigrs : about to open file testo_DS2_EIG
 Non-SCF case, kpt    1 (  0.50000  0.00000  0.00000), residuals and eigenvalues=
  5.97E-14  2.28E-13  8.14E-13  2.49E-13  3.34E-13  8.83E-14  1.00E-12  1.09E-09
 -4.2883E-01 -2.4864E-01 -8.1359E-02 -7.6052E-02 -2.7093E-03  1.0478E-01
  1.2060E-01  2.0252E-01
  prteigrs : nnsclo,ikpt=   20    1 max resid (incl. the buffer)=  1.09340E-09
 Non-SCF case, kpt    2 (  0.45000  0.00000  0.00000), residuals and eigenvalues=
  3.88E-13  7.55E-13  2.22E-13  5.05E-13  9.34E-14  9.41E-13  1.49E-13  6.74E-10
 -4.3077E-01 -2.4609E-01 -8.0982E-02 -7.5715E-02 -3.5294E-03  1.0535E-01
  1.2105E-01  2.0157E-01
  prteigrs : nnsclo,ikpt=   20    2 max resid (incl. the buffer)=  6.74107E-10
 Non-SCF case, kpt    3 (  0.40000  0.00000  0.00000), residuals and eigenvalues=
  1.31E-13  2.38E-13  1.49E-13  1.10E-13  9.70E-13  1.73E-13  3.72E-13  1.88E-09
 -4.3471E-01 -2.3681E-01 -7.9727E-02 -7.4416E-02 -1.4861E-03  1.0736E-01
  1.2296E-01  1.9740E-01
  prteigrs : nnsclo,ikpt=   20    3 max resid (incl. the buffer)=  1.87647E-09
 Non-SCF case, kpt    4 (  0.35000  0.00000  0.00000), residuals and eigenvalues=
  1.92E-13  8.52E-13  7.79E-14  4.45E-13  6.82E-14  3.74E-13  4.02E-13  3.75E-10
 -4.4038E-01 -2.2225E-01 -7.7686E-02 -7.2391E-02  2.0625E-03  1.1018E-01
  1.2559E-01  1.8588E-01
  prteigrs : nnsclo,ikpt=   20    4 max resid (incl. the buffer)=  3.74749E-10
 Non-SCF case, kpt    5 (  0.30000  0.00000  0.00000), residuals and eigenvalues=
  1.52E-13  2.40E-13  5.30E-13  2.88E-13  3.06E-13  4.33E-13  8.84E-13  4.47E-10
 -4.4701E-01 -2.0360E-01 -7.5012E-02 -6.9715E-02  6.3562E-03  1.1282E-01
  1.2792E-01  1.6621E-01
  prteigrs : nnsclo,ikpt=   20    5 max resid (incl. the buffer)=  4.47056E-10
 Non-SCF case, kpt    6 (  0.25000  0.00000  0.00000), residuals and eigenvalues=
  8.60E-13  8.66E-14  3.73E-14  8.06E-14  4.27E-13  2.02E-13  6.57E-13  4.03E-11
 -4.5398E-01 -1.8171E-01 -7.1915E-02 -6.6518E-02  1.0503E-02  1.1373E-01
  1.2828E-01  1.4360E-01
  prteigrs : nnsclo,ikpt=   20    6 max resid (incl. the buffer)=  4.03072E-11
 Non-SCF case, kpt    7 (  0.20000  0.00000  0.00000), residuals and eigenvalues=
  6.58E-14  1.76E-13  5.46E-13  2.94E-13  5.45E-13  8.73E-13  5.26E-13  5.51E-13
 -4.5981E-01 -1.5737E-01 -6.8424E-02 -6.2965E-02  1.2804E-02  1.1217E-01
  1.1987E-01  1.2865E-01
 Non-SCF case, kpt    8 (  0.15000  0.00000  0.00000), residuals and eigenvalues=
  3.46E-13  1.31E-13  3.99E-14  5.32E-13  8.67E-13  9.84E-13  2.11E-12  1.57E-11
 -4.6530E-01 -1.3147E-01 -6.5031E-02 -5.9608E-02  9.4373E-03  1.0397E-01
  1.0832E-01  1.2332E-01
  prteigrs : nnsclo,ikpt=   20    8 max resid (incl. the buffer)=  1.56695E-11
 Non-SCF case, kpt    9 (  0.10000  0.00000  0.00000), residuals and eigenvalues=
  2.41E-13  7.52E-13  7.21E-13  7.48E-13  1.64E-13  2.70E-13  1.94E-12  1.01E-11
 -4.6910E-01 -1.0461E-01 -6.2077E-02 -5.6656E-02 -2.6501E-03  9.5990E-02
  1.0354E-01  1.1838E-01
  prteigrs : nnsclo,ikpt=   20    9 max resid (incl. the buffer)=  1.01161E-11
 Non-SCF case, kpt   10 (  0.05000  0.00000  0.00000), residuals and eigenvalues=
  1.51E-13  1.50E-13  4.22E-13  2.76E-14  3.72E-13  3.71E-13  7.51E-13  1.08E-11
 -4.7107E-01 -7.7703E-02 -5.9935E-02 -5.4646E-02 -2.1655E-02  9.4064E-02
  1.0067E-01  1.1516E-01
  prteigrs : nnsclo,ikpt=   20   10 max resid (incl. the buffer)=  1.08262E-11
 Non-SCF case, kpt   11 (  0.00000  0.00000  0.00000), residuals and eigenvalues=
  4.01E-13  2.74E-13  5.93E-14  8.28E-14  1.71E-13  2.23E-13  1.60E-13  3.07E-12
 -4.7160E-01 -5.9606E-02 -5.8558E-02 -5.3997E-02 -3.7792E-02  9.3727E-02
  9.9990E-02  1.1422E-01
  prteigrs : nnsclo,ikpt=   20   11 max resid (incl. the buffer)=  3.06759E-12
 Non-SCF case, kpt   12 (  0.02083  0.04167  0.06250), residuals and eigenvalues=
  9.78E-13  1.54E-13  4.49E-14  5.65E-13  1.94E-13  3.10E-13  8.51E-13  6.89E-12
 -4.7055E-01 -7.5292E-02 -6.1324E-02 -5.8911E-02 -1.9151E-02  9.4023E-02
  1.0240E-01  1.1398E-01
  prteigrs : nnsclo,ikpt=   20   12 max resid (incl. the buffer)=  6.88511E-12
 Non-SCF case, kpt   13 (  0.04167  0.08333  0.12500), residuals and eigenvalues=
  1.04E-13  8.37E-13  6.06E-14  8.83E-14  7.54E-13  2.13E-13  4.73E-13  9.31E-13
 -4.6774E-01 -1.0274E-01 -6.7393E-02 -6.1592E-02  2.4324E-03  8.9020E-02
  1.0706E-01  1.2261E-01
 Non-SCF case, kpt   14 (  0.06250  0.12500  0.18750), residuals and eigenvalues=
  4.92E-13  4.03E-13  1.07E-13  5.57E-13  1.72E-13  3.45E-13  3.04E-11  6.65E-11
 -4.6296E-01 -1.2980E-01 -7.6848E-02 -6.5687E-02  2.1059E-02  7.9837E-02
  1.1606E-01  1.3792E-01
  prteigrs : nnsclo,ikpt=   20   14 max resid (incl. the buffer)=  6.64909E-11
 Non-SCF case, kpt   15 (  0.08333  0.16667  0.25000), residuals and eigenvalues=
  3.52E-13  4.60E-13  1.66E-13  1.70E-13  3.44E-13  4.00E-13  1.87E-09  8.42E-10
 -4.5689E-01 -1.5546E-01 -8.9102E-02 -7.1020E-02  3.5935E-02  7.2123E-02
  1.2837E-01  1.4457E-01
  prteigrs : nnsclo,ikpt=   20   15 max resid (incl. the buffer)=  1.87379E-09
 Non-SCF case, kpt   16 (  0.10417  0.20833  0.31250), residuals and eigenvalues=
  7.88E-14  3.55E-13  6.10E-13  8.51E-13  1.89E-13  2.58E-13  7.99E-10  4.78E-10
 -4.4879E-01 -1.7869E-01 -1.0283E-01 -7.7530E-02  4.7457E-02  6.7885E-02
  1.3647E-01  1.4455E-01
  prteigrs : nnsclo,ikpt=   20   16 max resid (incl. the buffer)=  7.98857E-10
 Non-SCF case, kpt   17 (  0.12500  0.25000  0.37500), residuals and eigenvalues=
  6.95E-13  2.53E-13  6.91E-13  2.27E-13  7.55E-13  6.94E-13  1.22E-12  7.17E-10
 -4.4013E-01 -1.9901E-01 -1.1699E-01 -8.5432E-02  5.4915E-02  6.7481E-02
  1.2753E-01  1.6224E-01
  prteigrs : nnsclo,ikpt=   20   17 max resid (incl. the buffer)=  7.16899E-10
 Non-SCF case, kpt   18 (  0.14583  0.29167  0.43750), residuals and eigenvalues=
  3.92E-13  3.22E-13  8.90E-13  2.51E-13  5.91E-13  5.79E-13  1.59E-12  4.89E-09
 -4.3104E-01 -2.1601E-01 -1.3042E-01 -9.4739E-02  5.9102E-02  7.0643E-02
  1.2199E-01  1.8261E-01
  prteigrs : nnsclo,ikpt=   20   18 max resid (incl. the buffer)=  4.88767E-09
 Non-SCF case, kpt   19 (  0.16667  0.33333  0.50000), residuals and eigenvalues=
  6.90E-13  5.02E-13  6.53E-13  5.62E-13  5.82E-13  3.93E-13  8.32E-12  3.25E-07
 -4.2251E-01 -2.2927E-01 -1.4211E-01 -1.0521E-01  6.2279E-02  7.6610E-02
  1.2024E-01  2.0515E-01
  prteigrs : nnsclo,ikpt=   20   19 max resid (incl. the buffer)=  3.25160E-07
 Non-SCF case, kpt   20 (  0.18750  0.37500  0.56250), residuals and eigenvalues=
  1.30E-13  6.00E-14  1.44E-13  1.09E-13  1.10E-13  2.31E-13  6.13E-13  8.18E-05
 -4.1538E-01 -2.3844E-01 -1.5097E-01 -1.1630E-01  6.6540E-02  8.4735E-02
  1.2171E-01  2.2927E-01
  prteigrs : nnsclo,ikpt=   20   20 max resid (incl. the buffer)=  8.18335E-05
 Non-SCF case, kpt   21 (  0.20833  0.41667  0.62500), residuals and eigenvalues=
  1.23E-13  2.80E-13  5.80E-13  8.37E-14  8.82E-13  2.66E-13  6.60E-13  1.75E-06
 -4.1040E-01 -2.4375E-01 -1.5595E-01 -1.2723E-01  7.2409E-02  9.4642E-02
  1.2621E-01  2.2877E-01
  prteigrs : nnsclo,ikpt=   20   21 max resid (incl. the buffer)=  1.74777E-06
 Non-SCF case, kpt   22 (  0.22917  0.45833  0.68750), residuals and eigenvalues=
  5.63E-14  5.92E-13  6.06E-14  2.41E-14  2.60E-13  8.70E-13  6.40E-13  5.53E-10
 -4.0798E-01 -2.4588E-01 -1.5617E-01 -1.3700E-01  7.9565E-02  1.0565E-01
  1.3388E-01  1.9184E-01
  prteigrs : nnsclo,ikpt=   20   22 max resid (incl. the buffer)=  5.53269E-10
 Non-SCF case, kpt   23 (  0.25000  0.50000  0.75000), residuals and eigenvalues=
  7.47E-14  6.23E-13  5.62E-13  2.53E-13  1.15E-13  7.00E-13  1.04E-12  6.21E-12
 -4.0800E-01 -2.4631E-01 -1.5362E-01 -1.4219E-01  8.6116E-02  1.1517E-01
  1.4168E-01  1.6266E-01
  prteigrs : nnsclo,ikpt=   20   23 max resid (incl. the buffer)=  6.20561E-12
 Non-SCF case, kpt   24 (  0.25735  0.49265  0.75000), residuals and eigenvalues=
  9.80E-14  6.61E-13  5.52E-13  3.38E-13  9.89E-13  3.16E-13  1.14E-12  7.45E-12
 -4.0796E-01 -2.4648E-01 -1.5360E-01 -1.4198E-01  8.4693E-02  1.1525E-01
  1.4254E-01  1.6339E-01
  prteigrs : nnsclo,ikpt=   20   24 max resid (incl. the buffer)=  7.45263E-12
 Non-SCF case, kpt   25 (  0.26471  0.48529  0.75000), residuals and eigenvalues=
  1.35E-13  7.14E-13  5.58E-13  4.19E-13  5.97E-13  5.59E-13  3.19E-12  1.27E-11
 -4.0794E-01 -2.4665E-01 -1.5378E-01 -1.4125E-01  8.1507E-02  1.1546E-01
  1.4451E-01  1.6511E-01
  prteigrs : nnsclo,ikpt=   20   25 max resid (incl. the buffer)=  1.27009E-11
 Non-SCF case, kpt   26 (  0.27206  0.47794  0.75000), residuals and eigenvalues=
  1.81E-13  7.78E-13  5.69E-13  4.77E-13  9.73E-13  9.82E-13  7.02E-12  2.85E-11
 -4.0796E-01 -2.4682E-01 -1.5415E-01 -1.4002E-01  7.6894E-02  1.1600E-01
  1.4722E-01  1.6768E-01
  prteigrs : nnsclo,ikpt=   20   26 max resid (incl. the buffer)=  2.85294E-11
 Non-SCF case, kpt   27 (  0.27941  0.47059  0.75000), residuals and eigenvalues=
  9.79E-14  7.39E-13  4.93E-13  6.81E-13  6.17E-13  3.20E-13  2.00E-11  1.31E-11
 -4.0780E-01 -2.4687E-01 -1.5465E-01 -1.3830E-01  7.1364E-02  1.1684E-01
  1.5051E-01  1.7102E-01
  prteigrs : nnsclo,ikpt=   20   27 max resid (incl. the buffer)=  1.99617E-11
 Non-SCF case, kpt   28 (  0.28676  0.46324  0.75000), residuals and eigenvalues=
  1.40E-13  3.77E-13  7.23E-13  4.72E-14  2.79E-13  3.09E-13  7.74E-13  2.29E-12
 -4.0798E-01 -2.4711E-01 -1.5527E-01 -1.3631E-01  6.5300E-02  1.1749E-01
  1.5413E-01  1.7491E-01
  prteigrs : nnsclo,ikpt=   20   28 max resid (incl. the buffer)=  2.28689E-12
 Non-SCF case, kpt   29 (  0.29412  0.45588  0.75000), residuals and eigenvalues=
  6.74E-13  6.55E-13  3.34E-13  8.51E-13  3.41E-13  3.51E-13  3.31E-13  8.36E-12
 -4.0800E-01 -2.4721E-01 -1.5588E-01 -1.3402E-01  5.9089E-02  1.1810E-01
  1.5819E-01  1.7932E-01
  prteigrs : nnsclo,ikpt=   20   29 max resid (incl. the buffer)=  8.35741E-12
 Non-SCF case, kpt   30 (  0.30147  0.44853  0.75000), residuals and eigenvalues=
  1.18E-13  3.73E-13  2.08E-13  5.10E-14  4.40E-13  5.99E-13  2.90E-10  5.42E-09
 -4.0799E-01 -2.4736E-01 -1.5653E-01 -1.3145E-01  5.2805E-02  1.1853E-01
  1.6267E-01  1.8421E-01
  prteigrs : nnsclo,ikpt=   20   30 max resid (incl. the buffer)=  5.42382E-09
 Non-SCF case, kpt   31 (  0.30882  0.44118  0.75000), residuals and eigenvalues=
  9.80E-13  6.91E-13  2.53E-13  8.38E-14  2.59E-13  2.61E-13  6.19E-12  1.46E-11
 -4.0822E-01 -2.4760E-01 -1.5718E-01 -1.2887E-01  4.6672E-02  1.1877E-01
  1.6733E-01  1.8909E-01
  prteigrs : nnsclo,ikpt=   20   31 max resid (incl. the buffer)=  1.45714E-11
 Non-SCF case, kpt   32 (  0.31618  0.43382  0.75000), residuals and eigenvalues=
  5.94E-13  7.36E-14  1.30E-13  5.17E-13  6.70E-13  2.81E-13  1.58E-10  1.42E-08
 -4.0823E-01 -2.4772E-01 -1.5776E-01 -1.2617E-01  4.0837E-02  1.1898E-01
  1.7239E-01  1.9424E-01
  prteigrs : nnsclo,ikpt=   20   32 max resid (incl. the buffer)=  1.41511E-08
 Non-SCF case, kpt   33 (  0.32353  0.42647  0.75000), residuals and eigenvalues=
  1.87E-13  4.12E-13  3.04E-13  9.50E-13  2.06E-13  5.30E-13  2.70E-11  7.86E-09
 -4.0830E-01 -2.4781E-01 -1.5828E-01 -1.2351E-01  3.5380E-02  1.1908E-01
  1.7769E-01  1.9931E-01
  prteigrs : nnsclo,ikpt=   20   33 max resid (incl. the buffer)=  7.85699E-09
 Non-SCF case, kpt   34 (  0.33088  0.41912  0.75000), residuals and eigenvalues=
  1.64E-13  3.49E-13  3.76E-13  1.72E-13  2.01E-13  8.55E-13  8.53E-11  4.46E-08
 -4.0841E-01 -2.4796E-01 -1.5876E-01 -1.2097E-01  3.0348E-02  1.1909E-01
  1.8308E-01  2.0426E-01
  prteigrs : nnsclo,ikpt=   20   34 max resid (incl. the buffer)=  4.46300E-08
 Non-SCF case, kpt   35 (  0.33824  0.41176  0.75000), residuals and eigenvalues=
  1.29E-13  2.83E-13  5.37E-13  2.21E-13  2.02E-13  2.79E-13  4.04E-10  2.11E-07
 -4.0851E-01 -2.4810E-01 -1.5917E-01 -1.1861E-01  2.5867E-02  1.1906E-01
  1.8862E-01  2.0902E-01
  prteigrs : nnsclo,ikpt=   20   35 max resid (incl. the buffer)=  2.10738E-07
 Non-SCF case, kpt   36 (  0.34559  0.40441  0.75000), residuals and eigenvalues=
  8.97E-14  2.29E-13  7.31E-13  2.62E-13  1.81E-13  3.99E-13  2.49E-09  6.02E-07
 -4.0859E-01 -2.4822E-01 -1.5951E-01 -1.1651E-01  2.2030E-02  1.1902E-01
  1.9426E-01  2.1340E-01
  prteigrs : nnsclo,ikpt=   20   36 max resid (incl. the buffer)=  6.01703E-07
 Non-SCF case, kpt   37 (  0.35294  0.39706  0.75000), residuals and eigenvalues=
  1.81E-13  4.89E-13  2.42E-13  1.01E-13  1.94E-13  4.01E-13  1.47E-07  5.07E-07
 -4.0858E-01 -2.4825E-01 -1.5977E-01 -1.1473E-01  1.8931E-02  1.1902E-01
  2.0005E-01  2.1713E-01
  prteigrs : nnsclo,ikpt=   20   37 max resid (incl. the buffer)=  5.07447E-07
 Non-SCF case, kpt   38 (  0.36029  0.38971  0.75000), residuals and eigenvalues=
  2.16E-13  6.07E-13  9.26E-13  7.76E-14  1.29E-13  5.43E-13  4.47E-07  9.89E-07
 -4.0863E-01 -2.4832E-01 -1.5996E-01 -1.1341E-01  1.6644E-02  1.1898E-01
  2.0569E-01  2.1964E-01
  prteigrs : nnsclo,ikpt=   20   38 max resid (incl. the buffer)=  9.89196E-07
 Non-SCF case, kpt   39 (  0.36765  0.38235  0.75000), residuals and eigenvalues=
  4.94E-13  5.22E-14  4.75E-13  5.02E-13  1.88E-13  8.58E-13  3.02E-06  1.15E-05
 -4.0856E-01 -2.4830E-01 -1.6004E-01 -1.1258E-01  1.5259E-02  1.1899E-01
  2.1127E-01  2.1999E-01
  prteigrs : nnsclo,ikpt=   20   39 max resid (incl. the buffer)=  1.14560E-05
 Non-SCF case, kpt   40 (  0.37500  0.37500  0.75000), residuals and eigenvalues=
  2.67E-13  8.70E-14  1.79E-13  4.19E-14  3.92E-13  1.77E-13  6.01E-06  7.97E-07
 -4.0857E-01 -2.4832E-01 -1.6008E-01 -1.1230E-01  1.4786E-02  1.1898E-01
  2.1525E-01  2.1761E-01
  prteigrs : nnsclo,ikpt=   20   40 max resid (incl. the buffer)=  6.00866E-06


--- !ResultsGS
iteration_state: {dtset: 2, }
comment   : Summary of ground state results
lattice_vectors:
- [  0.0000000,   5.7242639,   5.7242639, ]
- [  5.7242639,   0.0000000,   5.7242639, ]
- [  5.5258427,   5.5258427,   0.0000000, ]
lattice_lengths: [   8.09533,    8.09533,    7.81472, ]
lattice_angles: [ 60.000,  60.000,  60.000, ] # degrees, (23, 13, 12)
lattice_volume:   3.6213275E+02
convergence: {deltae:  0.000E+00, res2:  0.000E+00, residm:  9.887E-13, diffor:  0.000E+00, }
etotal    :  -1.06021307E+01
entropy   :   0.00000000E+00
fermie    :  -5.80508736E-02
cartesian_stress_tensor: null
pressure_GPa: null
xred      :
- [  0.0000E+00,   0.0000E+00,   0.0000E+00, In]
- [  2.5000E-01,   2.5000E-01,   2.5000E-01, As]
cartesian_forces: null
force_length_stats: {min: null, max: null, mean: null, }
...

 Integrated electronic density in atomic spheres:
 ------------------------------------------------
 Atom  Sphere_radius  Integrated_density
    1        2.00000          0.61776679
    2        2.00000          2.36493863
================================================================================

 ----iterations are completed or convergence reached----

 Mean square residual over all n,k,spin=   37.999E-14; max=  98.867E-14
 reduced coordinates (array xred) for    2 atoms
       0.000000000000      0.000000000000      0.000000000000
       0.250000000000      0.250000000000      0.250000000000

 cartesian coordinates (angstrom) at end:
    1      0.00000000000000     0.00000000000000     0.00000000000000
    2      1.48832500000000     1.48832500000000     1.51457500000000
 length scales= 11.448527830861 11.448527830861 11.051685342955 bohr
              =  6.058300000000  6.058300000000  5.848300000000 angstroms
 prteigrs : about to open file testo_DS2_EIG
 Eigenvalues (   eV  ) for nkpt=  40  k points:
 kpt#   1, nband=  8, wtk=  1.00000, kpt=  0.5000  0.0000  0.0000 (reduced coord)
 -11.66893   -6.76576   -2.21389   -2.06949   -0.07372    2.85111    3.28165    5.51083
 kpt#   2, nband=  8, wtk=  1.00000, kpt=  0.4500  0.0000  0.0000 (reduced coord)
 -11.72190   -6.69657   -2.20363   -2.06030   -0.09604    2.86679    3.29393    5.48494
 kpt#   3, nband=  8, wtk=  1.00000, kpt=  0.4000  0.0000  0.0000 (reduced coord)
 -11.82916   -6.44396   -2.16947   -2.02496   -0.04044    2.92129    3.34595    5.37163
 kpt#   4, nband=  8, wtk=  1.00000, kpt=  0.3500  0.0000  0.0000 (reduced coord)
 -11.98329   -6.04761   -2.11396   -1.96986    0.05612    2.99803    3.41735    5.05808
 kpt#   5, nband=  8, wtk=  1.00000, kpt=  0.3000  0.0000  0.0000 (reduced coord)
 -12.16374   -5.54021   -2.04119   -1.89703    0.17296    3.06986    3.48095    4.52287
 kpt#   6, nband=  8, wtk=  1.00000, kpt=  0.2500  0.0000  0.0000 (reduced coord)
 -12.35330   -4.94459   -1.95691   -1.81004    0.28580    3.09474    3.49059    3.90754
 kpt#   7, nband=  8, wtk=  1.00000, kpt=  0.2000  0.0000  0.0000 (reduced coord)
 -12.51194   -4.28231   -1.86192   -1.71335    0.34840    3.05219    3.26190    3.50075
 kpt#   8, nband=  8, wtk=  1.00000, kpt=  0.1500  0.0000  0.0000 (reduced coord)
 -12.66147   -3.57735   -1.76959   -1.62202    0.25680    2.82912    2.94760    3.35571
 kpt#   9, nband=  8, wtk=  1.00000, kpt=  0.1000  0.0000  0.0000 (reduced coord)
 -12.76484   -2.84664   -1.68920   -1.54168   -0.07211    2.61201    2.81757    3.22122
 kpt#  10, nband=  8, wtk=  1.00000, kpt=  0.0500  0.0000  0.0000 (reduced coord)
 -12.81834   -2.11440   -1.63092   -1.48699   -0.58927    2.55962    2.73945    3.13360
 kpt#  11, nband=  8, wtk=  1.00000, kpt=  0.0000  0.0000  0.0000 (reduced coord)
 -12.83301   -1.62195   -1.59343   -1.46932   -1.02836    2.55043    2.72088    3.10798
 kpt#  12, nband=  8, wtk=  1.00000, kpt=  0.0208  0.0417  0.0625 (reduced coord)
 -12.80422   -2.04881   -1.66871   -1.60306   -0.52112    2.55850    2.78646    3.10161
 kpt#  13, nband=  8, wtk=  1.00000, kpt=  0.0417  0.0833  0.1250 (reduced coord)
 -12.72779   -2.79572   -1.83385   -1.67601    0.06619    2.42236    2.91334    3.33641
 kpt#  14, nband=  8, wtk=  1.00000, kpt=  0.0625  0.1250  0.1875 (reduced coord)
 -12.59778   -3.53206   -2.09115   -1.78743    0.57306    2.17247    3.15811    3.75294
 kpt#  15, nband=  8, wtk=  1.00000, kpt=  0.0833  0.1667  0.2500 (reduced coord)
 -12.43271   -4.23016   -2.42458   -1.93255    0.97784    1.96257    3.49309    3.93403
 kpt#  16, nband=  8, wtk=  1.00000, kpt=  0.1042  0.2083  0.3125 (reduced coord)
 -12.21229   -4.86230   -2.79827   -2.10970    1.29136    1.84724    3.71360    3.93339
 kpt#  17, nband=  8, wtk=  1.00000, kpt=  0.1250  0.2500  0.3750 (reduced coord)
 -11.97646   -5.41526   -3.18356   -2.32473    1.49432    1.83626    3.47038    4.41469
 kpt#  18, nband=  8, wtk=  1.00000, kpt=  0.1458  0.2917  0.4375 (reduced coord)
 -11.72914   -5.87790   -3.54883   -2.57797    1.60825    1.92230    3.31956    4.96902
 kpt#  19, nband=  8, wtk=  1.00000, kpt=  0.1667  0.3333  0.5000 (reduced coord)
 -11.49719   -6.23885   -3.86707   -2.86293    1.69470    2.08465    3.27194    5.58229
 kpt#  20, nband=  8, wtk=  1.00000, kpt=  0.1875  0.3750  0.5625 (reduced coord)
 -11.30315   -6.48840   -4.10797   -3.16456    1.81064    2.30575    3.31189    6.23877
 kpt#  21, nband=  8, wtk=  1.00000, kpt=  0.2083  0.4167  0.6250 (reduced coord)
 -11.16748   -6.63268   -4.24363   -3.46218    1.97035    2.57533    3.43442    6.22504
 kpt#  22, nband=  8, wtk=  1.00000, kpt=  0.2292  0.4583  0.6875 (reduced coord)
 -11.10166   -6.69073   -4.24955   -3.72788    2.16506    2.87490    3.64294    5.22028
 kpt#  23, nband=  8, wtk=  1.00000, kpt=  0.2500  0.5000  0.7500 (reduced coord)
 -11.10231   -6.70238   -4.18018   -3.86924    2.34334    3.13383    3.85521    4.42631
 kpt#  24, nband=  8, wtk=  1.00000, kpt=  0.2574  0.4926  0.7500 (reduced coord)
 -11.10108   -6.70714   -4.17978   -3.86348    2.30462    3.13614    3.87870    4.44606
 kpt#  25, nband=  8, wtk=  1.00000, kpt=  0.2647  0.4853  0.7500 (reduced coord)
 -11.10061   -6.71181   -4.18447   -3.84364    2.21791    3.14190    3.93220    4.49284
 kpt#  26, nband=  8, wtk=  1.00000, kpt=  0.2721  0.4779  0.7500 (reduced coord)
 -11.10113   -6.71642   -4.19460   -3.81001    2.09238    3.15650    4.00597    4.56271
 kpt#  27, nband=  8, wtk=  1.00000, kpt=  0.2794  0.4706  0.7500 (reduced coord)
 -11.09679   -6.71770   -4.20827   -3.76344    1.94191    3.17937    4.09571    4.65378
 kpt#  28, nband=  8, wtk=  1.00000, kpt=  0.2868  0.4632  0.7500 (reduced coord)
 -11.10171   -6.72426   -4.22512   -3.70920    1.77690    3.19697    4.19399    4.75947
 kpt#  29, nband=  8, wtk=  1.00000, kpt=  0.2941  0.4559  0.7500 (reduced coord)
 -11.10238   -6.72699   -4.24159   -3.64687    1.60789    3.21368    4.30461    4.87947
 kpt#  30, nband=  8, wtk=  1.00000, kpt=  0.3015  0.4485  0.7500 (reduced coord)
 -11.10197   -6.73089   -4.25953   -3.57695    1.43690    3.22530    4.42649    5.01271
 kpt#  31, nband=  8, wtk=  1.00000, kpt=  0.3088  0.4412  0.7500 (reduced coord)
 -11.10810   -6.73765   -4.27700   -3.50668    1.27001    3.23200    4.55338    5.14532
 kpt#  32, nband=  8, wtk=  1.00000, kpt=  0.3162  0.4338  0.7500 (reduced coord)
 -11.10850   -6.74077   -4.29276   -3.43317    1.11123    3.23754    4.69110    5.28566
 kpt#  33, nband=  8, wtk=  1.00000, kpt=  0.3235  0.4265  0.7500 (reduced coord)
 -11.11028   -6.74314   -4.30698   -3.36099    0.96274    3.24024    4.83520    5.42340
 kpt#  34, nband=  8, wtk=  1.00000, kpt=  0.3309  0.4191  0.7500 (reduced coord)
 -11.11331   -6.74744   -4.31999   -3.29179    0.82582    3.24058    4.98192    5.55819
 kpt#  35, nband=  8, wtk=  1.00000, kpt=  0.3382  0.4118  0.7500 (reduced coord)
 -11.11603   -6.75124   -4.33119   -3.22744    0.70389    3.23986    5.13262    5.68763
 kpt#  36, nband=  8, wtk=  1.00000, kpt=  0.3456  0.4044  0.7500 (reduced coord)
 -11.11837   -6.75445   -4.34049   -3.17026    0.59947    3.23862    5.28608    5.80693
 kpt#  37, nband=  8, wtk=  1.00000, kpt=  0.3529  0.3971  0.7500 (reduced coord)
 -11.11814   -6.75533   -4.34753   -3.12186    0.51514    3.23880    5.44350    5.90829
 kpt#  38, nband=  8, wtk=  1.00000, kpt=  0.3603  0.3897  0.7500 (reduced coord)
 -11.11951   -6.75724   -4.35278   -3.08594    0.45289    3.23766    5.59724    5.97680
 kpt#  39, nband=  8, wtk=  1.00000, kpt=  0.3676  0.3824  0.7500 (reduced coord)
 -11.11751   -6.75667   -4.35491   -3.06346    0.41522    3.23783    5.74894    5.98629
 kpt#  40, nband=  8, wtk=  1.00000, kpt=  0.3750  0.3750  0.7500 (reduced coord)
 -11.11780   -6.75706   -4.35597   -3.05587    0.40236    3.23755    5.85719    5.92148

== END DATASET(S) ==============================================================
================================================================================
  
 -outvars: echo values of variables after computation  --------
            acell      1.1448527831E+01  1.1448527831E+01  1.1051685343E+01 Bohr
              amu      1.14820000E+02  7.49215900E+01
           diemac      1.20000000E+01
             ecut      4.00000000E+00 Hartree
           enunit1          0
           enunit2          1
           etotal1    -1.0602130728E+01
            fcart1     1.4823707350E-03  1.4823707350E-03 -2.4596489925E-03
                      -1.4823707350E-03 -1.4823707350E-03  2.4596489925E-03
-          fftalg         112
           getden1          0
           getden2         -1
             iscf1          7
             iscf2         -2
           istwfk2       1    0    0    0    0    0    0    0    0    0
                         1    0    0    0    0    0    0    0    0    0
                         0    0    0    0    0    0    0    0    0    0
                         0    0    0    0    0    0    0    0    0    0
                       outvar_i_n : Printing only first  50 k-points.
           jdtset        1    2
              kpt1     0.00000000E+00 -1.25000000E-01  0.00000000E+00
                       0.00000000E+00 -3.75000000E-01  0.00000000E+00
                       1.25000000E-01 -2.50000000E-01  0.00000000E+00
                       0.00000000E+00 -2.50000000E-01  1.25000000E-01
                       1.25000000E-01 -1.25000000E-01  1.25000000E-01
                       0.00000000E+00 -1.25000000E-01  2.50000000E-01
                       1.25000000E-01  5.00000000E-01  0.00000000E+00
                       2.50000000E-01 -3.75000000E-01  0.00000000E+00
                       0.00000000E+00  5.00000000E-01  1.25000000E-01
                       1.25000000E-01 -3.75000000E-01  1.25000000E-01
                       2.50000000E-01 -2.50000000E-01  1.25000000E-01
                       3.75000000E-01 -1.25000000E-01  1.25000000E-01
                       0.00000000E+00 -3.75000000E-01  2.50000000E-01
                       1.25000000E-01 -2.50000000E-01  2.50000000E-01
                       2.50000000E-01 -1.25000000E-01  2.50000000E-01
                       0.00000000E+00 -2.50000000E-01  3.75000000E-01
                       1.25000000E-01 -1.25000000E-01  3.75000000E-01
                       0.00000000E+00 -1.25000000E-01  5.00000000E-01
                       1.25000000E-01  2.50000000E-01  0.00000000E+00
                       2.50000000E-01  3.75000000E-01  0.00000000E+00
                       3.75000000E-01  5.00000000E-01  0.00000000E+00
                       0.00000000E+00  2.50000000E-01  1.25000000E-01
                       1.25000000E-01  3.75000000E-01  1.25000000E-01
                       2.50000000E-01  5.00000000E-01  1.25000000E-01
                       3.75000000E-01 -3.75000000E-01  1.25000000E-01
                       5.00000000E-01 -2.50000000E-01  1.25000000E-01
                      -3.75000000E-01 -1.25000000E-01  1.25000000E-01
                       0.00000000E+00  3.75000000E-01  2.50000000E-01
                       1.25000000E-01  5.00000000E-01  2.50000000E-01
                       2.50000000E-01 -3.75000000E-01  2.50000000E-01
                       3.75000000E-01 -2.50000000E-01  2.50000000E-01
                       5.00000000E-01 -1.25000000E-01  2.50000000E-01
                       0.00000000E+00  5.00000000E-01  3.75000000E-01
                       1.25000000E-01 -3.75000000E-01  3.75000000E-01
                       2.50000000E-01 -2.50000000E-01  3.75000000E-01
                       3.75000000E-01 -1.25000000E-01  3.75000000E-01
                       0.00000000E+00 -3.75000000E-01  5.00000000E-01
                       1.25000000E-01 -2.50000000E-01  5.00000000E-01
                       0.00000000E+00 -2.50000000E-01 -3.75000000E-01
                       0.00000000E+00 -1.25000000E-01 -2.50000000E-01
                       0.00000000E+00  0.00000000E+00  1.25000000E-01
                       1.25000000E-01  1.25000000E-01  1.25000000E-01
                       2.50000000E-01  2.50000000E-01  1.25000000E-01
                       3.75000000E-01  3.75000000E-01  1.25000000E-01
                       5.00000000E-01  5.00000000E-01  1.25000000E-01
                      -3.75000000E-01 -3.75000000E-01  1.25000000E-01
                      -2.50000000E-01 -2.50000000E-01  1.25000000E-01
                      -1.25000000E-01 -1.25000000E-01  1.25000000E-01
                       1.25000000E-01  2.50000000E-01  2.50000000E-01
                       2.50000000E-01  3.75000000E-01  2.50000000E-01
              kpt2     5.00000000E-01  0.00000000E+00  0.00000000E+00
                       4.50000000E-01  0.00000000E+00  0.00000000E+00
                       4.00000000E-01  0.00000000E+00  0.00000000E+00
                       3.50000000E-01  0.00000000E+00  0.00000000E+00
                       3.00000000E-01  0.00000000E+00  0.00000000E+00
                       2.50000000E-01  0.00000000E+00  0.00000000E+00
                       2.00000000E-01  0.00000000E+00  0.00000000E+00
                       1.50000000E-01  0.00000000E+00  0.00000000E+00
                       1.00000000E-01  0.00000000E+00  0.00000000E+00
                       5.00000000E-02  0.00000000E+00  0.00000000E+00
                       0.00000000E+00  0.00000000E+00  0.00000000E+00
                       2.08333333E-02  4.16666667E-02  6.25000000E-02
                       4.16666667E-02  8.33333333E-02  1.25000000E-01
                       6.25000000E-02  1.25000000E-01  1.87500000E-01
                       8.33333333E-02  1.66666667E-01  2.50000000E-01
                       1.04166667E-01  2.08333333E-01  3.12500000E-01
                       1.25000000E-01  2.50000000E-01  3.75000000E-01
                       1.45833333E-01  2.91666667E-01  4.37500000E-01
                       1.66666667E-01  3.33333333E-01  5.00000000E-01
                       1.87500000E-01  3.75000000E-01  5.62500000E-01
                       2.08333333E-01  4.16666667E-01  6.25000000E-01
                       2.29166667E-01  4.58333333E-01  6.87500000E-01
                       2.50000000E-01  5.00000000E-01  7.50000000E-01
                       2.57352941E-01  4.92647059E-01  7.50000000E-01
                       2.64705882E-01  4.85294118E-01  7.50000000E-01
                       2.72058824E-01  4.77941176E-01  7.50000000E-01
                       2.79411765E-01  4.70588235E-01  7.50000000E-01
                       2.86764706E-01  4.63235294E-01  7.50000000E-01
                       2.94117647E-01  4.55882353E-01  7.50000000E-01
                       3.01470588E-01  4.48529412E-01  7.50000000E-01
                       3.08823529E-01  4.41176471E-01  7.50000000E-01
                       3.16176471E-01  4.33823529E-01  7.50000000E-01
                       3.23529412E-01  4.26470588E-01  7.50000000E-01
                       3.30882353E-01  4.19117647E-01  7.50000000E-01
                       3.38235294E-01  4.11764706E-01  7.50000000E-01
                       3.45588235E-01  4.04411765E-01  7.50000000E-01
                       3.52941176E-01  3.97058824E-01  7.50000000E-01
                       3.60294118E-01  3.89705882E-01  7.50000000E-01
                       3.67647059E-01  3.82352941E-01  7.50000000E-01
                       3.75000000E-01  3.75000000E-01  7.50000000E-01
                       outvar_i_n : Printing only first  50 k-points.
           kptopt1          1
           kptopt2         -3
         kptrlatt        4    4   -4     -4    4    4      4   -4    4
          kptrlen1     4.50074250E+01
          kptrlen2     3.00000000E+01
P           mkmem1         72
P           mkmem2         40
            natom           2
            nband1          5
            nband2          8
           nbdbuf1          0
           nbdbuf2          2
           ndtset           2
            ngfft          16      16      16
             nkpt1         72
             nkpt2         40
            nstep          20
             nsym           2
           ntypat           2
              occ      2.000000  2.000000  2.000000  2.000000  0.000000
            rprim      0.0000000000E+00  5.0000000000E-01  5.0000000000E-01
                       5.0000000000E-01  0.0000000000E+00  5.0000000000E-01
                       5.0000000000E-01  5.0000000000E-01  0.0000000000E+00
           shiftk1    -5.00000000E-01  5.00000000E-01  5.00000000E-01
           shiftk2     5.00000000E-01  5.00000000E-01  5.00000000E-01
          spgroup           8
           strten1     3.5950901015E-04  3.5950901015E-04  3.8927847771E-04
                       2.9369964141E-05  2.9369964141E-05 -5.5263483270E-05
           symrel      1  0  0   0  1  0   0  0  1       0  1  0   1  0  0   0  0  1
           toldfe1     1.00000000E-06 Hartree
           toldfe2     0.00000000E+00 Hartree
           tolwfr1     0.00000000E+00
           tolwfr2     1.00000000E-12
            typat      1  2
              wtk1       0.01563    0.01563    0.01563    0.01563    0.01563    0.01563
                         0.01563    0.01563    0.01563    0.01563    0.01563    0.01563
                         0.01563    0.01563    0.01563    0.01563    0.01563    0.01563
                         0.01563    0.01563    0.01563    0.01563    0.01563    0.01563
                         0.01563    0.01563    0.01563    0.01563    0.01563    0.01563
                         0.01563    0.01563    0.01563    0.01563    0.01563    0.01563
                         0.01563    0.01563    0.01563    0.01563    0.00781    0.00781
                         0.00781    0.00781    0.00781    0.00781    0.00781    0.00781
                         0.01563    0.01563
              wtk2       1.00000    1.00000    1.00000    1.00000    1.00000    1.00000
                         1.00000    1.00000    1.00000    1.00000    1.00000    1.00000
                         1.00000    1.00000    1.00000    1.00000    1.00000    1.00000
                         1.00000    1.00000    1.00000    1.00000    1.00000    1.00000
                         1.00000    1.00000    1.00000    1.00000    1.00000    1.00000
                         1.00000    1.00000    1.00000    1.00000    1.00000    1.00000
                         1.00000    1.00000    1.00000    1.00000
                       outvars : Printing only first  50 k-points.
           xangst      0.0000000000E+00  0.0000000000E+00  0.0000000000E+00
                       1.4883250000E+00  1.4883250000E+00  1.5145750000E+00
            xcart      0.0000000000E+00  0.0000000000E+00  0.0000000000E+00
                       2.8125266467E+00  2.8125266467E+00  2.8621319577E+00
             xred      0.0000000000E+00  0.0000000000E+00  0.0000000000E+00
                       2.5000000000E-01  2.5000000000E-01  2.5000000000E-01
            znucl       49.00000   33.00000

================================================================================


- Timing analysis has been suppressed with timopt=0



================================================================================

 Suggested references for the acknowledgment of ABINIT usage.

 The users of ABINIT have little formal obligations with respect to the ABINIT group
 (those specified in the GNU General Public License, http://www.gnu.org/copyleft/gpl.txt).
 However, it is common practice in the scientific literature,
 to acknowledge the efforts of people that have made the research possible.
 In this spirit, please find below suggested citations of work written by ABINIT developers,
 corresponding to implementations inside of ABINIT that you have used in the present run.
 Note also that it will be of great value to readers of publications presenting these results,
 to read papers enabling them to understand the theoretical formalism and details
 of the ABINIT implementation.
 For information on why they are suggested, see also https://docs.abinit.org/theory/acknowledgments.
-
- [1] The Abinit project: Impact, environment and recent developments.
- Computer Phys. Comm. 248, 107042 (2020).
- X.Gonze, B. Amadon, G. Antonius, F.Arnardi, L.Baguet, J.-M.Beuken,
- J.Bieder, F.Bottin, J.Bouchet, E.Bousquet, N.Brouwer, F.Bruneval,
- G.Brunin, T.Cavignac, J.-B. Charraud, Wei Chen, M.Cote, S.Cottenier,
- J.Denier, G.Geneste, Ph.Ghosez, M.Giantomassi, Y.Gillet, O.Gingras,
- D.R.Hamann, G.Hautier, Xu He, N.Helbig, N.Holzwarth, Y.Jia, F.Jollet,
- W.Lafargue-Dit-Hauret, K.Lejaeghere, M.A.L.Marques, A.Martin, C.Martins,
- H.P.C. Miranda, F.Naccarato, K. Persson, G.Petretto, V.Planes, Y.Pouillon,
- S.Prokhorenko, F.Ricci, G.-M.Rignanese, A.H.Romero, M.M.Schmitt, M.Torrent,
- M.J.van Setten, B.Van Troeye, M.J.Verstraete, G.Zerah and J.W.Zwanzig
- Comment: the fifth generic paper describing the ABINIT project.
- Note that a version of this paper, that is not formatted for Computer Phys. Comm. 
- is available at https://www.abinit.org/sites/default/files/ABINIT20.pdf .
- The licence allows the authors to put it on the Web.
- DOI and bibtex: see https://docs.abinit.org/theory/bibliography/#gonze2020
-
- [2] ABINIT: Overview, and focus on selected capabilities
- J. Chem. Phys. 152, 124102 (2020).
- A. Romero, D.C. Allan, B. Amadon, G. Antonius, T. Applencourt, L.Baguet,
- J.Bieder, F.Bottin, J.Bouchet, E.Bousquet, F.Bruneval,
- G.Brunin, D.Caliste, M.Cote,
- J.Denier, C. Dreyer, Ph.Ghosez, M.Giantomassi, Y.Gillet, O.Gingras,
- D.R.Hamann, G.Hautier, F.Jollet, G. Jomard,
- A.Martin, 
- H.P.C. Miranda, F.Naccarato, G.Petretto, N.A. Pike, V.Planes,
- S.Prokhorenko, T. Rangel, F.Ricci, G.-M.Rignanese, M.Royo, M.Stengel, M.Torrent,
- M.J.van Setten, B.Van Troeye, M.J.Verstraete, J.Wiktor, J.W.Zwanziger, and X.Gonze.
- Comment: a global overview of ABINIT, with focus on selected capabilities .
- Note that a version of this paper, that is not formatted for J. Chem. Phys 
- is available at https://www.abinit.org/sites/default/files/ABINIT20_JPC.pdf .
- The licence allows the authors to put it on the Web.
- DOI and bibtex: see https://docs.abinit.org/theory/bibliography/#romero2020
-
- [3] Recent developments in the ABINIT software package.
- Computer Phys. Comm. 205, 106 (2016).
- X.Gonze, F.Jollet, F.Abreu Araujo, D.Adams, B.Amadon, T.Applencourt,
- C.Audouze, J.-M.Beuken, J.Bieder, A.Bokhanchuk, E.Bousquet, F.Bruneval
- D.Caliste, M.Cote, F.Dahm, F.Da Pieve, M.Delaveau, M.Di Gennaro,
- B.Dorado, C.Espejo, G.Geneste, L.Genovese, A.Gerossier, M.Giantomassi,
- Y.Gillet, D.R.Hamann, L.He, G.Jomard, J.Laflamme Janssen, S.Le Roux,
- A.Levitt, A.Lherbier, F.Liu, I.Lukacevic, A.Martin, C.Martins,
- M.J.T.Oliveira, S.Ponce, Y.Pouillon, T.Rangel, G.-M.Rignanese,
- A.H.Romero, B.Rousseau, O.Rubel, A.A.Shukri, M.Stankovski, M.Torrent,
- M.J.Van Setten, B.Van Troeye, M.J.Verstraete, D.Waroquier, J.Wiktor,
- B.Xu, A.Zhou, J.W.Zwanziger.
- Comment: the fourth generic paper describing the ABINIT project.
- Note that a version of this paper, that is not formatted for Computer Phys. Comm. 
- is available at https://www.abinit.org/sites/default/files/ABINIT16.pdf .
- The licence allows the authors to put it on the Web.
- DOI and bibtex: see https://docs.abinit.org/theory/bibliography/#gonze2016
-
- And optionally:
-
- [4] ABINIT: First-principles approach of materials and nanosystem properties.
- Computer Phys. Comm. 180, 2582-2615 (2009).
- X. Gonze, B. Amadon, P.-M. Anglade, J.-M. Beuken, F. Bottin, P. Boulanger, F. Bruneval,
- D. Caliste, R. Caracas, M. Cote, T. Deutsch, L. Genovese, Ph. Ghosez, M. Giantomassi
- S. Goedecker, D.R. Hamann, P. Hermet, F. Jollet, G. Jomard, S. Leroux, M. Mancini, S. Mazevet,
- M.J.T. Oliveira, G. Onida, Y. Pouillon, T. Rangel, G.-M. Rignanese, D. Sangalli, R. Shaltaf,
- M. Torrent, M.J. Verstraete, G. Zerah, J.W. Zwanziger
- Comment: the third generic paper describing the ABINIT project.
- Note that a version of this paper, that is not formatted for Computer Phys. Comm. 
- is available at https://www.abinit.org/sites/default/files/ABINIT_CPC_v10.pdf .
- The licence allows the authors to put it on the Web.
- DOI and bibtex: see https://docs.abinit.org/theory/bibliography/#gonze2009
-
- Proc.   0 individual time (sec): cpu=          9.8  wall=         54.1

================================================================================

 Calculation completed.
.Delivered   1 WARNINGs and   5 COMMENTs to log file.
+Overall time at end (sec) : cpu=          9.8  wall=         54.1
