
.Version 9.6.2 of ABINIT 
.(MPI version, prepared for a x86_64_linux_gnu9.4 computer) 

.Copyright (C) 1998-2021 ABINIT group . 
 ABINIT comes with ABSOLUTELY NO WARRANTY.
 It is free software, and you are welcome to redistribute it
 under certain conditions (GNU General Public License,
 see ~abinit/COPYING or http://www.gnu.org/copyleft/gpl.txt).

 ABINIT is a project of the Universite Catholique de Louvain,
 Corning Inc. and other collaborators, see ~abinit/doc/developers/contributors.txt .
 Please read https://docs.abinit.org/theory/acknowledgments for suggested
 acknowledgments of the ABINIT effort.
 For more information, see https://www.abinit.org .

.Starting date : Wed 19 Oct 2022.
- ( at 21h36 )
  
- input  file    -> InAs.in
- output file    -> test.out
- root for input  files -> testi
- root for output files -> testo


 DATASET    1 : space group F-4 3 m (#216); Bravais cF (face-center cubic)
================================================================================
 Values of the parameters that define the memory need for DATASET  1.
     intxc =       0    ionmov =       0      iscf =       7    lmnmax =       1
     lnmax =       1     mgfft =      16  mpssoang =       2    mqgrid =    3001
     natom =       2  nloc_mem =       1    nspden =       1   nspinor =       1
    nsppol =       1      nsym =      24    n1xccc =    2501    ntypat =       2
    occopt =       1   xclevel =       1
-    mband =           5        mffmem =           1         mkmem =          10
       mpw =         153          nfft =        4096          nkpt =          10
================================================================================
P This job should need less than                       2.128 Mbytes of memory.
  Rough estimation (10% accuracy) of disk space for files :
_ WF disk file :      0.119 Mbytes ; DEN or POT disk file :      0.033 Mbytes.
================================================================================


 DATASET    2 : space group F-4 3 m (#216); Bravais cF (face-center cubic)
================================================================================
 Values of the parameters that define the memory need for DATASET  2.
     intxc =       0    ionmov =       0      iscf =      -2    lmnmax =       1
     lnmax =       1     mgfft =      16  mpssoang =       2    mqgrid =    3001
     natom =       2  nloc_mem =       1    nspden =       1   nspinor =       1
    nsppol =       1      nsym =      24    n1xccc =    2501    ntypat =       2
    occopt =       1   xclevel =       1
-    mband =           8        mffmem =           1         mkmem =          40
       mpw =         153          nfft =        4096          nkpt =          40
================================================================================
P This job should need less than                       2.353 Mbytes of memory.
  Rough estimation (10% accuracy) of disk space for files :
_ WF disk file :      0.749 Mbytes ; DEN or POT disk file :      0.033 Mbytes.
================================================================================

--------------------------------------------------------------------------------
------------- Echo of variables that govern the present computation ------------
--------------------------------------------------------------------------------
-
- outvars: echo of selected default values                                      
-   iomode0 =  0 , fftalg0 =112 , wfoptalg0 =  0
-
- outvars: echo of global parameters not present in the input file              
-  max_nthreads =    0
-
 -outvars: echo values of preprocessed input variables --------
            acell      1.1448527831E+01  1.1448527831E+01  1.1448527831E+01 Bohr
              amu      1.14820000E+02  7.49215900E+01
           diemac      1.20000000E+01
             ecut      4.00000000E+00 Hartree
           enunit1          0
           enunit2          1
-          fftalg         112
           getden1          0
           getden2         -1
             iscf1          7
             iscf2         -2
           istwfk2       1    0    0    0    0    0    0    0    0    0
                         1    0    0    0    0    0    0    0    0    0
                         0    0    0    0    0    0    0    0    0    0
                         0    0    0    0    0    0    0    0    0    0
           jdtset        1    2
              kpt1    -1.25000000E-01 -2.50000000E-01  0.00000000E+00
                      -1.25000000E-01  5.00000000E-01  0.00000000E+00
                      -2.50000000E-01 -3.75000000E-01  0.00000000E+00
                      -1.25000000E-01 -3.75000000E-01  1.25000000E-01
                      -1.25000000E-01  2.50000000E-01  0.00000000E+00
                      -2.50000000E-01  3.75000000E-01  0.00000000E+00
                      -3.75000000E-01  5.00000000E-01  0.00000000E+00
                      -2.50000000E-01  5.00000000E-01  1.25000000E-01
                      -1.25000000E-01  0.00000000E+00  0.00000000E+00
                      -3.75000000E-01  0.00000000E+00  0.00000000E+00
              kpt2     5.00000000E-01  0.00000000E+00  0.00000000E+00
                       4.50000000E-01  0.00000000E+00  0.00000000E+00
                       4.00000000E-01  0.00000000E+00  0.00000000E+00
                       3.50000000E-01  0.00000000E+00  0.00000000E+00
                       3.00000000E-01  0.00000000E+00  0.00000000E+00
                       2.50000000E-01  0.00000000E+00  0.00000000E+00
                       2.00000000E-01  0.00000000E+00  0.00000000E+00
                       1.50000000E-01  0.00000000E+00  0.00000000E+00
                       1.00000000E-01  0.00000000E+00  0.00000000E+00
                       5.00000000E-02  0.00000000E+00  0.00000000E+00
                       0.00000000E+00  0.00000000E+00  0.00000000E+00
                       2.08333333E-02  4.16666667E-02  6.25000000E-02
                       4.16666667E-02  8.33333333E-02  1.25000000E-01
                       6.25000000E-02  1.25000000E-01  1.87500000E-01
                       8.33333333E-02  1.66666667E-01  2.50000000E-01
                       1.04166667E-01  2.08333333E-01  3.12500000E-01
                       1.25000000E-01  2.50000000E-01  3.75000000E-01
                       1.45833333E-01  2.91666667E-01  4.37500000E-01
                       1.66666667E-01  3.33333333E-01  5.00000000E-01
                       1.87500000E-01  3.75000000E-01  5.62500000E-01
                       2.08333333E-01  4.16666667E-01  6.25000000E-01
                       2.29166667E-01  4.58333333E-01  6.87500000E-01
                       2.50000000E-01  5.00000000E-01  7.50000000E-01
                       2.57352941E-01  4.92647059E-01  7.50000000E-01
                       2.64705882E-01  4.85294118E-01  7.50000000E-01
                       2.72058824E-01  4.77941176E-01  7.50000000E-01
                       2.79411765E-01  4.70588235E-01  7.50000000E-01
                       2.86764706E-01  4.63235294E-01  7.50000000E-01
                       2.94117647E-01  4.55882353E-01  7.50000000E-01
                       3.01470588E-01  4.48529412E-01  7.50000000E-01
                       3.08823529E-01  4.41176471E-01  7.50000000E-01
                       3.16176471E-01  4.33823529E-01  7.50000000E-01
                       3.23529412E-01  4.26470588E-01  7.50000000E-01
                       3.30882353E-01  4.19117647E-01  7.50000000E-01
                       3.38235294E-01  4.11764706E-01  7.50000000E-01
                       3.45588235E-01  4.04411765E-01  7.50000000E-01
                       3.52941176E-01  3.97058824E-01  7.50000000E-01
                       3.60294118E-01  3.89705882E-01  7.50000000E-01
                       3.67647059E-01  3.82352941E-01  7.50000000E-01
                       3.75000000E-01  3.75000000E-01  7.50000000E-01
           kptopt1          1
           kptopt2         -3
         kptrlatt        4   -4    4     -4    4    4     -4   -4    4
          kptrlen1     4.57941113E+01
          kptrlen2     3.00000000E+01
P           mkmem1         10
P           mkmem2         40
            natom           2
            nband1          5
            nband2          8
           nbdbuf1          0
           nbdbuf2          2
           ndtset           2
            ngfft          16      16      16
             nkpt1         10
             nkpt2         40
            nstep          20
             nsym          24
           ntypat           2
              occ      2.000000  2.000000  2.000000  2.000000  0.000000
            rprim      0.0000000000E+00  5.0000000000E-01  5.0000000000E-01
                       5.0000000000E-01  0.0000000000E+00  5.0000000000E-01
                       5.0000000000E-01  5.0000000000E-01  0.0000000000E+00
           shiftk      5.00000000E-01  5.00000000E-01  5.00000000E-01
          spgroup         216
           symrel      1  0  0   0  1  0   0  0  1       0 -1  1   0 -1  0   1 -1  0
                      -1  0  0  -1  0  1  -1  1  0       0  1 -1   1  0 -1   0  0 -1
                      -1  0  0  -1  1  0  -1  0  1       0 -1  1   1 -1  0   0 -1  0
                       1  0  0   0  0  1   0  1  0       0  1 -1   0  0 -1   1  0 -1
                      -1  0  1  -1  1  0  -1  0  0       0 -1  0   1 -1  0   0 -1  1
                       1  0 -1   0  0 -1   0  1 -1       0  1  0   0  0  1   1  0  0
                       1  0 -1   0  1 -1   0  0 -1       0 -1  0   0 -1  1   1 -1  0
                      -1  0  1  -1  0  0  -1  1  0       0  1  0   1  0  0   0  0  1
                       0  0 -1   0  1 -1   1  0 -1       1 -1  0   0 -1  1   0 -1  0
                       0  0  1   1  0  0   0  1  0      -1  1  0  -1  0  0  -1  0  1
                       0  0  1   0  1  0   1  0  0       1 -1  0   0 -1  0   0 -1  1
                       0  0 -1   1  0 -1   0  1 -1      -1  1  0  -1  0  1  -1  0  0
           toldfe1     1.00000000E-06 Hartree
           toldfe2     0.00000000E+00 Hartree
           tolwfr1     0.00000000E+00
           tolwfr2     1.00000000E-12
            typat      1  2
              wtk1       0.09375    0.09375    0.09375    0.18750    0.09375    0.09375
                         0.09375    0.18750    0.03125    0.03125
              wtk2       1.00000    1.00000    1.00000    1.00000    1.00000    1.00000
                         1.00000    1.00000    1.00000    1.00000    1.00000    1.00000
                         1.00000    1.00000    1.00000    1.00000    1.00000    1.00000
                         1.00000    1.00000    1.00000    1.00000    1.00000    1.00000
                         1.00000    1.00000    1.00000    1.00000    1.00000    1.00000
                         1.00000    1.00000    1.00000    1.00000    1.00000    1.00000
                         1.00000    1.00000    1.00000    1.00000
           xangst      0.0000000000E+00  0.0000000000E+00  0.0000000000E+00
                       1.5145750000E+00  1.5145750000E+00  1.5145750000E+00
            xcart      0.0000000000E+00  0.0000000000E+00  0.0000000000E+00
                       2.8621319577E+00  2.8621319577E+00  2.8621319577E+00
             xred      0.0000000000E+00  0.0000000000E+00  0.0000000000E+00
                       2.5000000000E-01  2.5000000000E-01  2.5000000000E-01
            znucl       49.00000   33.00000

================================================================================

 chkinp: Checking input parameters for consistency, jdtset=   1.

 chkinp: Checking input parameters for consistency, jdtset=   2.

================================================================================
== DATASET  1 ==================================================================
-   mpi_nproc: 1, omp_nthreads: -1 (-1 if OMP is not activated)


--- !DatasetInfo
iteration_state: {dtset: 1, }
dimensions: {natom: 2, nkpt: 10, mband: 5, nsppol: 1, nspinor: 1, nspden: 1, mpw: 153, }
cutoff_energies: {ecut:   4.0, pawecutdg:  -1.0, }
electrons: {nelect:   8.00000000E+00, charge:   0.00000000E+00, occopt:   1.00000000E+00, tsmear:   1.00000000E-02, }
meta: {optdriver: 0, ionmov: 0, optcell: 0, iscf: 7, paral_kgb: 0, }
...

 Exchange-correlation functional for the present dataset will be:
  LDA: new Teter (4/93) with spin-polarized option - ixc=1
 Citation for XC functional:
  S. Goedecker, M. Teter, J. Huetter, PRB 54, 1703 (1996)

 Real(R)+Recip(G) space primitive vectors, cartesian coordinates (Bohr,Bohr^-1):
 R(1)=  0.0000000  5.7242639  5.7242639  G(1)= -0.0873475  0.0873475  0.0873475
 R(2)=  5.7242639  0.0000000  5.7242639  G(2)=  0.0873475 -0.0873475  0.0873475
 R(3)=  5.7242639  5.7242639  0.0000000  G(3)=  0.0873475  0.0873475 -0.0873475
 Unit cell volume ucvol=  3.7513617E+02 bohr^3
 Angles (23,13,12)=  6.00000000E+01  6.00000000E+01  6.00000000E+01 degrees

 getcut: wavevector=  0.0000  0.0000  0.0000  ngfft=  16  16  16
         ecut(hartree)=      4.000   => boxcut(ratio)=   2.19528

--- Pseudopotential description ------------------------------------------------
- pspini: atom type   1  psp file is 49in.pspnc
- pspatm: opening atomic psp file    49in.pspnc
-  Troullier-Martins psp for element  In        Thu Oct 27 17:43:15 EDT 1994
- 49.00000   3.00000    940714                znucl, zion, pspdat
    1    1    1    0      2001   0.00000      pspcod,pspxc,lmax,lloc,mmax,r2well
    0   8.236  12.726    0   2.1883691        l,e99.0,e99.9,nproj,rcpsp
   0.00000000   0.00000000   0.00000000   0.00000000     rms, ekb1, ekb2, epsatm
    1   3.329   5.528    1   2.6396875        l,e99.0,e99.9,nproj,rcpsp
   0.00000000   0.00000000   0.00000000   0.00000000     rms, ekb1, ekb2, epsatm
    3.24177624483359    0.09532364101432    2.83397955305767   rchrg,fchrg,qchrg
  pspatm : epsatm=   39.73038112
         --- l  ekb(1:nproj) -->
             1    0.789729
 pspatm: atomic psp has been read  and splines computed

- pspini: atom type   2  psp file is 33as.pspnc
- pspatm: opening atomic psp file    33as.pspnc
-  Troullier-Martins psp for element  As        Thu Oct 27 17:37:14 EDT 1994
- 33.00000   5.00000    940714                znucl, zion, pspdat
    1    1    1    1      2001   0.00000      pspcod,pspxc,lmax,lloc,mmax,r2well
    0   4.772  10.829    1   2.5306160        l,e99.0,e99.9,nproj,rcpsp
   0.00000000   0.00000000   0.00000000   0.00000000     rms, ekb1, ekb2, epsatm
    1   2.745   5.580    0   2.5306160        l,e99.0,e99.9,nproj,rcpsp
   0.00000000   0.00000000   0.00000000   0.00000000     rms, ekb1, ekb2, epsatm
    2.05731715564010    0.36322996461007    2.76014815959125   rchrg,fchrg,qchrg
  pspatm : epsatm=   27.20579911
         --- l  ekb(1:nproj) -->
             0    0.838751
 pspatm: atomic psp has been read  and splines computed

   5.35489442E+02                                ecore*ucvol(ha*bohr**3)
--------------------------------------------------------------------------------

_setup2: Arith. and geom. avg. npw (full set) are     143.813     143.788

================================================================================

--- !BeginCycle
iteration_state: {dtset: 1, }
solver: {iscf: 7, nstep: 20, nline: 4, wfoptalg: 0, }
tolerances: {toldfe: 1.00E-06, }
...

     iter   Etot(hartree)      deltaE(h)  residm     vres2
 ETOT  1  -10.591835423630    -1.059E+01 3.604E-03 3.467E+00
 ETOT  2  -10.599248281636    -7.413E-03 1.718E-05 2.253E-01
 ETOT  3  -10.599538984113    -2.907E-04 1.053E-05 1.696E-02
 ETOT  4  -10.599564912703    -2.593E-05 7.997E-07 8.201E-04
 ETOT  5  -10.599565795244    -8.825E-07 1.117E-07 1.403E-06
 ETOT  6  -10.599565796175    -9.309E-10 3.030E-09 5.079E-08

 At SCF step    6, etot is converged : 
  for the second time, diff in etot=  9.309E-10 < toldfe=  1.000E-06

 Cartesian components of stress tensor (hartree/bohr^3)
  sigma(1 1)=  4.06186140E-04  sigma(3 2)=  0.00000000E+00
  sigma(2 2)=  4.06186140E-04  sigma(3 1)=  0.00000000E+00
  sigma(3 3)=  4.06186140E-04  sigma(2 1)=  0.00000000E+00


--- !ResultsGS
iteration_state: {dtset: 1, }
comment   : Summary of ground state results
lattice_vectors:
- [  0.0000000,   5.7242639,   5.7242639, ]
- [  5.7242639,   0.0000000,   5.7242639, ]
- [  5.7242639,   5.7242639,   0.0000000, ]
lattice_lengths: [   8.09533,    8.09533,    8.09533, ]
lattice_angles: [ 60.000,  60.000,  60.000, ] # degrees, (23, 13, 12)
lattice_volume:   3.7513617E+02
convergence: {deltae: -9.309E-10, res2:  5.079E-08, residm:  3.030E-09, diffor: null, }
etotal    :  -1.05995658E+01
entropy   :   0.00000000E+00
fermie    :  -6.60951243E-02
cartesian_stress_tensor: # hartree/bohr^3
- [  4.06186140E-04,   0.00000000E+00,   0.00000000E+00, ]
- [  0.00000000E+00,   4.06186140E-04,   0.00000000E+00, ]
- [  0.00000000E+00,   0.00000000E+00,   4.06186140E-04, ]
pressure_GPa:  -1.1950E+01
xred      :
- [  0.0000E+00,   0.0000E+00,   0.0000E+00, In]
- [  2.5000E-01,   2.5000E-01,   2.5000E-01, As]
cartesian_forces: # hartree/bohr
- [  1.03357512E-31,  -1.03357512E-31,  -1.14841681E-32, ]
- [ -1.03357512E-31,   1.03357512E-31,   1.14841681E-32, ]
force_length_stats: {min:   1.46620043E-31, max:   1.46620043E-31, mean:   1.46620043E-31, }
...

 Integrated electronic density in atomic spheres:
 ------------------------------------------------
 Atom  Sphere_radius  Integrated_density
    1        2.00000          0.62307559
    2        2.00000          2.38454115
================================================================================

 ----iterations are completed or convergence reached----

 Mean square residual over all n,k,spin=   15.227E-11; max=  30.304E-10
 reduced coordinates (array xred) for    2 atoms
       0.000000000000      0.000000000000      0.000000000000
       0.250000000000      0.250000000000      0.250000000000
 rms dE/dt=  6.8738E-31; max dE/dt=  1.0518E-30; dE/dt below (all hartree)
    1       0.000000000000      0.000000000000      0.000000000000
    2      -0.000000000000      0.000000000000      0.000000000000

 cartesian coordinates (angstrom) at end:
    1      0.00000000000000     0.00000000000000     0.00000000000000
    2      1.51457500000000     1.51457500000000     1.51457500000000

 cartesian forces (hartree/bohr) at end:
    1      0.00000000000000    -0.00000000000000    -0.00000000000000
    2     -0.00000000000000     0.00000000000000     0.00000000000000
 frms,max,avg= 8.4651121E-32 1.0335751E-31   0.000E+00  0.000E+00  0.000E+00 h/b

 cartesian forces (eV/Angstrom) at end:
    1      0.00000000000000    -0.00000000000000    -0.00000000000000
    2     -0.00000000000000     0.00000000000000     0.00000000000000
 frms,max,avg= 4.3529353E-30 5.3148565E-30   0.000E+00  0.000E+00  0.000E+00 e/A
 length scales= 11.448527830861 11.448527830861 11.448527830861 bohr
              =  6.058300000000  6.058300000000  6.058300000000 angstroms
 prteigrs : about to open file testo_DS1_EIG
 Fermi (or HOMO) energy (hartree) =  -0.06610   Average Vxc (hartree)=  -0.33324
 Eigenvalues (hartree) for nkpt=  10  k points:
 kpt#   1, nband=  5, wtk=  0.09375, kpt= -0.1250 -0.2500  0.0000 (reduced coord)
  -0.45307   -0.17115   -0.08735   -0.08614    0.03068
 prteigrs : prtvol=0 or 1, do not print more k-points.


--- !EnergyTerms
iteration_state     : {dtset: 1, }
comment             : Components of total free energy in Hartree
kinetic             :  2.74639590822674E+00
hartree             :  9.52690700825000E-01
xc                  : -4.89152195828647E+00
Ewald energy        : -7.85880037499876E+00
psp_core            :  1.42745350395048E+00
local_psp           : -3.15935279172484E+00
non_local_psp       :  1.83569215832580E-01
total_energy        : -1.05995657961753E+01
total_energy_eV     : -2.88428853629051E+02
band_energy         : -1.76382858239546E+00
...


 Cartesian components of stress tensor (hartree/bohr^3)
  sigma(1 1)=  4.06186140E-04  sigma(3 2)=  0.00000000E+00
  sigma(2 2)=  4.06186140E-04  sigma(3 1)=  0.00000000E+00
  sigma(3 3)=  4.06186140E-04  sigma(2 1)=  0.00000000E+00

-Cartesian components of stress tensor (GPa)         [Pressure= -1.1950E+01 GPa]
- sigma(1 1)=  1.19504068E+01  sigma(3 2)=  0.00000000E+00
- sigma(2 2)=  1.19504068E+01  sigma(3 1)=  0.00000000E+00
- sigma(3 3)=  1.19504068E+01  sigma(2 1)=  0.00000000E+00

================================================================================
== DATASET  2 ==================================================================
-   mpi_nproc: 1, omp_nthreads: -1 (-1 if OMP is not activated)


--- !DatasetInfo
iteration_state: {dtset: 2, }
dimensions: {natom: 2, nkpt: 40, mband: 8, nsppol: 1, nspinor: 1, nspden: 1, mpw: 153, }
cutoff_energies: {ecut:   4.0, pawecutdg:  -1.0, }
electrons: {nelect:   8.00000000E+00, charge:   0.00000000E+00, occopt:   1.00000000E+00, tsmear:   1.00000000E-02, }
meta: {optdriver: 0, ionmov: 0, optcell: 0, iscf: -2, paral_kgb: 0, }
...

 mkfilename : getden/=0, take file _DEN from output of DATASET   1.

 Exchange-correlation functional for the present dataset will be:
  LDA: new Teter (4/93) with spin-polarized option - ixc=1
 Citation for XC functional:
  S. Goedecker, M. Teter, J. Huetter, PRB 54, 1703 (1996)

 Real(R)+Recip(G) space primitive vectors, cartesian coordinates (Bohr,Bohr^-1):
 R(1)=  0.0000000  5.7242639  5.7242639  G(1)= -0.0873475  0.0873475  0.0873475
 R(2)=  5.7242639  0.0000000  5.7242639  G(2)=  0.0873475 -0.0873475  0.0873475
 R(3)=  5.7242639  5.7242639  0.0000000  G(3)=  0.0873475  0.0873475 -0.0873475
 Unit cell volume ucvol=  3.7513617E+02 bohr^3
 Angles (23,13,12)=  6.00000000E+01  6.00000000E+01  6.00000000E+01 degrees

 getcut: wavevector=  0.0000  0.0000  0.0000  ngfft=  16  16  16
         ecut(hartree)=      4.000   => boxcut(ratio)=   2.19528
--------------------------------------------------------------------------------


================================================================================
 prteigrs : about to open file testo_DS2_EIG
 Non-SCF case, kpt    1 (  0.50000  0.00000  0.00000), residuals and eigenvalues=
  2.45E-13  1.34E-13  5.35E-13  1.95E-13  1.40E-13  4.21E-13  7.94E-14  4.00E-11
 -4.2732E-01 -2.4860E-01 -8.4672E-02 -8.4672E-02 -1.4214E-02  1.0413E-01
  1.0413E-01  1.9272E-01
  prteigrs : nnsclo,ikpt=   20    1 max resid (incl. the buffer)=  3.99994E-11
 Non-SCF case, kpt    2 (  0.45000  0.00000  0.00000), residuals and eigenvalues=
  9.60E-14  3.89E-13  8.73E-13  5.11E-13  2.19E-13  9.07E-13  5.64E-13  9.35E-10
 -4.2913E-01 -2.4624E-01 -8.4259E-02 -8.4259E-02 -1.5117E-02  1.0471E-01
  1.0471E-01  1.9184E-01
  prteigrs : nnsclo,ikpt=   20    2 max resid (incl. the buffer)=  9.35229E-10
 Non-SCF case, kpt    3 (  0.40000  0.00000  0.00000), residuals and eigenvalues=
  1.91E-13  2.35E-13  4.16E-13  6.57E-13  8.19E-14  2.92E-13  1.25E-13  4.60E-09
 -4.3316E-01 -2.3719E-01 -8.2974E-02 -8.2974E-02 -1.2932E-02  1.0667E-01
  1.0667E-01  1.8782E-01
  prteigrs : nnsclo,ikpt=   20    3 max resid (incl. the buffer)=  4.60450E-09
 Non-SCF case, kpt    4 (  0.35000  0.00000  0.00000), residuals and eigenvalues=
  3.10E-13  4.12E-13  2.58E-13  7.64E-13  6.14E-13  3.10E-13  8.54E-13  1.65E-09
 -4.3862E-01 -2.2297E-01 -8.0846E-02 -8.0846E-02 -9.2902E-03  1.0941E-01
  1.0941E-01  1.7663E-01
  prteigrs : nnsclo,ikpt=   20    4 max resid (incl. the buffer)=  1.64510E-09
 Non-SCF case, kpt    5 (  0.30000  0.00000  0.00000), residuals and eigenvalues=
  4.16E-13  9.21E-13  6.90E-13  8.08E-13  1.77E-13  3.13E-13  2.27E-13  8.42E-11
 -4.4513E-01 -2.0482E-01 -7.8068E-02 -7.8068E-02 -4.9274E-03  1.1189E-01
  1.1189E-01  1.5725E-01
  prteigrs : nnsclo,ikpt=   20    5 max resid (incl. the buffer)=  8.41951E-11
 Non-SCF case, kpt    6 (  0.25000  0.00000  0.00000), residuals and eigenvalues=
  1.30E-13  6.11E-13  6.07E-13  8.15E-13  1.79E-13  2.01E-13  3.05E-13  4.51E-12
 -4.5252E-01 -1.8360E-01 -7.4886E-02 -7.4886E-02 -8.0298E-04  1.1246E-01
  1.1246E-01  1.3472E-01
  prteigrs : nnsclo,ikpt=   20    6 max resid (incl. the buffer)=  4.50996E-12
 Non-SCF case, kpt    7 (  0.20000  0.00000  0.00000), residuals and eigenvalues=
  1.33E-13  3.25E-13  7.90E-13  2.85E-13  6.39E-13  2.67E-13  2.31E-13  7.16E-13
 -4.5843E-01 -1.6010E-01 -7.1283E-02 -7.1283E-02  1.2982E-03  1.1039E-01
  1.1039E-01  1.1422E-01
 Non-SCF case, kpt    8 (  0.15000  0.00000  0.00000), residuals and eigenvalues=
  2.85E-13  7.50E-14  6.95E-13  4.53E-13  5.97E-13  1.65E-13  3.58E-13  8.08E-13
 -4.6377E-01 -1.3504E-01 -6.7727E-02 -6.7727E-02 -2.1198E-03  9.9504E-02
  1.0576E-01  1.0576E-01
 Non-SCF case, kpt    9 (  0.10000  0.00000  0.00000), residuals and eigenvalues=
  1.37E-13  3.03E-13  3.87E-13  6.32E-13  1.81E-13  4.44E-13  4.58E-13  3.68E-13
 -4.6744E-01 -1.0905E-01 -6.4643E-02 -6.4643E-02 -1.3838E-02  9.3591E-02
  1.0042E-01  1.0042E-01
 Non-SCF case, kpt   10 (  0.05000  0.00000  0.00000), residuals and eigenvalues=
  8.89E-13  8.35E-14  1.78E-13  5.02E-13  4.89E-13  4.28E-13  4.74E-13  1.36E-12
 -4.6921E-01 -8.2610E-02 -6.2397E-02 -6.2397E-02 -3.2217E-02  9.4055E-02
  9.6763E-02  9.6763E-02
  prteigrs : nnsclo,ikpt=   20   10 max resid (incl. the buffer)=  1.35554E-12
 Non-SCF case, kpt   11 (  0.00000  0.00000  0.00000), residuals and eigenvalues=
  4.23E-13  4.23E-13  5.32E-13  2.41E-13  1.14E-13  4.29E-13  1.35E-13  1.32E-13
 -4.6921E-01 -6.1587E-02 -6.1587E-02 -6.1587E-02 -4.9701E-02  9.5609E-02
  9.5609E-02  9.5609E-02
 Non-SCF case, kpt   12 (  0.02083  0.04167  0.06250), residuals and eigenvalues=
  3.42E-13  3.47E-13  6.90E-14  1.01E-13  6.78E-14  3.84E-13  8.20E-13  6.27E-13
 -4.6895E-01 -8.3767E-02 -6.3854E-02 -6.2564E-02 -2.9728E-02  9.1553E-02
  9.7434E-02  9.9014E-02
 Non-SCF case, kpt   13 (  0.04167  0.08333  0.12500), residuals and eigenvalues=
  1.17E-13  6.34E-13  1.48E-13  2.48E-13  3.30E-13  3.07E-13  4.71E-13  1.06E-12
 -4.6680E-01 -1.1061E-01 -7.0305E-02 -6.5342E-02 -6.6484E-03  8.3793E-02
  1.0329E-01  1.0865E-01
  prteigrs : nnsclo,ikpt=   20   13 max resid (incl. the buffer)=  1.05549E-12
 Non-SCF case, kpt   14 (  0.06250  0.12500  0.18750), residuals and eigenvalues=
  2.67E-13  5.15E-13  8.86E-13  8.14E-13  1.04E-13  2.54E-13  1.03E-11  4.12E-12
 -4.6224E-01 -1.3613E-01 -8.0057E-02 -6.9499E-02  1.3879E-02  7.5774E-02
  1.1327E-01  1.2234E-01
  prteigrs : nnsclo,ikpt=   20   14 max resid (incl. the buffer)=  1.02974E-11
 Non-SCF case, kpt   15 (  0.08333  0.16667  0.25000), residuals and eigenvalues=
  1.22E-13  1.87E-13  1.83E-13  9.48E-13  7.66E-14  8.51E-13  2.50E-08  2.22E-08
 -4.5621E-01 -1.5999E-01 -9.2152E-02 -7.4942E-02  3.0518E-02  6.9541E-02
  1.2630E-01  1.3170E-01
  prteigrs : nnsclo,ikpt=   20   15 max resid (incl. the buffer)=  2.49763E-08
 Non-SCF case, kpt   16 (  0.10417  0.20833  0.31250), residuals and eigenvalues=
  1.23E-13  3.50E-13  3.99E-13  5.39E-14  2.64E-13  8.01E-13  8.94E-10  1.71E-09
 -4.4867E-01 -1.8170E-01 -1.0540E-01 -8.1595E-02  4.3184E-02  6.6014E-02
  1.2908E-01  1.4228E-01
  prteigrs : nnsclo,ikpt=   20   16 max resid (incl. the buffer)=  1.70691E-09
 Non-SCF case, kpt   17 (  0.12500  0.25000  0.37500), residuals and eigenvalues=
  8.24E-13  1.00E-13  6.27E-14  1.81E-13  9.00E-13  1.47E-13  2.08E-10  3.40E-07
 -4.4098E-01 -2.0083E-01 -1.1882E-01 -8.9550E-02  5.1721E-02  6.5202E-02
  1.2214E-01  1.6027E-01
  prteigrs : nnsclo,ikpt=   20   17 max resid (incl. the buffer)=  3.39787E-07
 Non-SCF case, kpt   18 (  0.14583  0.29167  0.43750), residuals and eigenvalues=
  8.14E-13  7.41E-14  3.11E-13  1.65E-13  2.10E-13  4.79E-13  8.32E-12  2.17E-06
 -4.3286E-01 -2.1690E-01 -1.3130E-01 -9.8659E-02  5.6912E-02  6.7537E-02
  1.1742E-01  1.8057E-01
  prteigrs : nnsclo,ikpt=   20   18 max resid (incl. the buffer)=  2.16675E-06
 Non-SCF case, kpt   19 (  0.16667  0.33333  0.50000), residuals and eigenvalues=
  1.79E-13  3.30E-14  2.92E-14  4.89E-14  4.15E-13  1.59E-13  1.27E-11  1.26E-05
 -4.2506E-01 -2.2945E-01 -1.4199E-01 -1.0865E-01  6.0509E-02  7.2844E-02
  1.1604E-01  2.0292E-01
  prteigrs : nnsclo,ikpt=   20   19 max resid (incl. the buffer)=  1.25724E-05
 Non-SCF case, kpt   20 (  0.18750  0.37500  0.56250), residuals and eigenvalues=
  4.53E-13  7.57E-13  3.39E-13  6.07E-14  6.80E-13  3.52E-13  7.86E-13  3.47E-05
 -4.1841E-01 -2.3828E-01 -1.5015E-01 -1.1902E-01  6.4490E-02  8.0342E-02
  1.1766E-01  2.2631E-01
  prteigrs : nnsclo,ikpt=   20   20 max resid (incl. the buffer)=  3.47408E-05
 Non-SCF case, kpt   21 (  0.20833  0.41667  0.62500), residuals and eigenvalues=
  4.12E-13  9.91E-13  2.21E-13  8.77E-13  1.73E-13  7.75E-13  5.94E-13  2.43E-09
 -4.1344E-01 -2.4379E-01 -1.5480E-01 -1.2916E-01  6.9830E-02  8.9426E-02
  1.2167E-01  2.0177E-01
  prteigrs : nnsclo,ikpt=   20   21 max resid (incl. the buffer)=  2.43113E-09
 Non-SCF case, kpt   22 (  0.22917  0.45833  0.68750), residuals and eigenvalues=
  1.38E-13  4.81E-13  1.94E-13  1.50E-13  1.31E-13  7.83E-13  2.09E-13  2.66E-10
 -4.1094E-01 -2.4684E-01 -1.5560E-01 -1.3813E-01  7.6259E-02  9.8438E-02
  1.2718E-01  1.6768E-01
  prteigrs : nnsclo,ikpt=   20   22 max resid (incl. the buffer)=  2.66410E-10
 Non-SCF case, kpt   23 (  0.25000  0.50000  0.75000), residuals and eigenvalues=
  5.07E-14  4.01E-13  7.29E-13  3.22E-13  4.39E-13  1.99E-13  2.65E-13  8.47E-13
 -4.0986E-01 -2.4724E-01 -1.5393E-01 -1.4301E-01  8.0838E-02  1.0400E-01
  1.2926E-01  1.5142E-01
 Non-SCF case, kpt   24 (  0.25735  0.49265  0.75000), residuals and eigenvalues=
  5.63E-14  4.38E-13  6.59E-13  4.12E-13  3.02E-13  1.86E-13  2.62E-13  2.26E-13
 -4.0989E-01 -2.4724E-01 -1.5402E-01 -1.4276E-01  8.0115E-02  1.0350E-01
  1.2990E-01  1.5224E-01
 Non-SCF case, kpt   25 (  0.26471  0.48529  0.75000), residuals and eigenvalues=
  6.31E-14  4.81E-13  6.06E-13  5.41E-13  5.10E-13  1.60E-13  3.72E-13  4.72E-13
 -4.0995E-01 -2.4725E-01 -1.5430E-01 -1.4198E-01  7.7812E-02  1.0244E-01
  1.3183E-01  1.5439E-01
 Non-SCF case, kpt   26 (  0.27206  0.47794  0.75000), residuals and eigenvalues=
  7.11E-14  5.30E-13  5.99E-13  7.16E-13  6.67E-13  9.25E-13  7.02E-13  7.23E-11
 -4.1004E-01 -2.4726E-01 -1.5477E-01 -1.4070E-01  7.3988E-02  1.0141E-01
  1.3481E-01  1.5748E-01
  prteigrs : nnsclo,ikpt=   20   26 max resid (incl. the buffer)=  7.22651E-11
 Non-SCF case, kpt   27 (  0.27941  0.47059  0.75000), residuals and eigenvalues=
  1.02E-13  4.02E-13  2.46E-13  4.53E-13  3.31E-13  4.82E-13  5.98E-12  4.67E-11
 -4.1022E-01 -2.4737E-01 -1.5537E-01 -1.3902E-01  6.9006E-02  1.0057E-01
  1.3841E-01  1.6123E-01
  prteigrs : nnsclo,ikpt=   20   27 max resid (incl. the buffer)=  4.66758E-11
 Non-SCF case, kpt   28 (  0.28676  0.46324  0.75000), residuals and eigenvalues=
  1.01E-13  5.20E-13  2.53E-13  6.02E-13  4.05E-13  4.50E-13  6.17E-12  1.58E-10
 -4.1036E-01 -2.4741E-01 -1.5603E-01 -1.3699E-01  6.3322E-02  9.9945E-02
  1.4270E-01  1.6547E-01
  prteigrs : nnsclo,ikpt=   20   28 max resid (incl. the buffer)=  1.57993E-10
 Non-SCF case, kpt   29 (  0.29412  0.45588  0.75000), residuals and eigenvalues=
  7.73E-13  8.00E-14  4.47E-13  6.33E-14  6.45E-13  5.15E-13  6.17E-11  2.82E-10
 -4.1072E-01 -2.4757E-01 -1.5674E-01 -1.3475E-01  5.7259E-02  9.9286E-02
  1.4734E-01  1.7004E-01
  prteigrs : nnsclo,ikpt=   20   29 max resid (incl. the buffer)=  2.82083E-10
 Non-SCF case, kpt   30 (  0.30147  0.44853  0.75000), residuals and eigenvalues=
  9.23E-13  8.32E-14  5.35E-13  1.08E-13  5.79E-13  5.12E-13  1.58E-10  9.48E-10
 -4.1088E-01 -2.4764E-01 -1.5742E-01 -1.3226E-01  5.1139E-02  9.8829E-02
  1.5236E-01  1.7486E-01
  prteigrs : nnsclo,ikpt=   20   30 max resid (incl. the buffer)=  9.47609E-10
 Non-SCF case, kpt   31 (  0.30882  0.44118  0.75000), residuals and eigenvalues=
  4.13E-13  8.78E-14  6.81E-13  2.48E-13  3.21E-13  7.99E-13  5.86E-12  1.50E-10
 -4.1053E-01 -2.4742E-01 -1.5803E-01 -1.2948E-01  4.5166E-02  9.8634E-02
  1.5775E-01  1.8041E-01
  prteigrs : nnsclo,ikpt=   20   31 max resid (incl. the buffer)=  1.50413E-10
 Non-SCF case, kpt   32 (  0.31618  0.43382  0.75000), residuals and eigenvalues=
  4.40E-13  9.48E-13  4.57E-13  9.46E-13  7.03E-13  9.06E-13  2.49E-11  1.10E-09
 -4.1070E-01 -2.4751E-01 -1.5863E-01 -1.2682E-01  3.9366E-02  9.8219E-02
  1.6323E-01  1.8547E-01
  prteigrs : nnsclo,ikpt=   20   32 max resid (incl. the buffer)=  1.09822E-09
 Non-SCF case, kpt   33 (  0.32353  0.42647  0.75000), residuals and eigenvalues=
  7.73E-13  2.81E-13  3.70E-14  4.77E-13  8.02E-13  3.73E-13  1.50E-10  1.89E-10
 -4.1106E-01 -2.4771E-01 -1.5925E-01 -1.2418E-01  3.3859E-02  9.7767E-02
  1.6887E-01  1.9032E-01
  prteigrs : nnsclo,ikpt=   20   33 max resid (incl. the buffer)=  1.89455E-10
 Non-SCF case, kpt   34 (  0.33088  0.41912  0.75000), residuals and eigenvalues=
  8.61E-13  3.38E-13  4.79E-13  5.08E-13  7.95E-13  6.81E-13  1.24E-09  4.73E-10
 -4.1120E-01 -2.4780E-01 -1.5973E-01 -1.2162E-01  2.8840E-02  9.7425E-02
  1.7465E-01  1.9527E-01
  prteigrs : nnsclo,ikpt=   20   34 max resid (incl. the buffer)=  1.24391E-09
 Non-SCF case, kpt   35 (  0.33824  0.41176  0.75000), residuals and eigenvalues=
  8.86E-13  3.48E-13  4.87E-13  8.16E-13  8.73E-13  3.28E-13  8.20E-09  2.40E-09
 -4.1133E-01 -2.4788E-01 -1.6015E-01 -1.1925E-01  2.4361E-02  9.7126E-02
  1.8055E-01  2.0002E-01
  prteigrs : nnsclo,ikpt=   20   35 max resid (incl. the buffer)=  8.20442E-09
 Non-SCF case, kpt   36 (  0.34559  0.40441  0.75000), residuals and eigenvalues=
  3.06E-13  4.19E-13  5.96E-14  6.50E-14  5.06E-13  2.08E-13  2.31E-09  6.23E-07
 -4.1106E-01 -2.4751E-01 -1.6038E-01 -1.1704E-01  2.0701E-02  9.7065E-02
  1.8694E-01  2.0467E-01
  prteigrs : nnsclo,ikpt=   20   36 max resid (incl. the buffer)=  6.22943E-07
 Non-SCF case, kpt   37 (  0.35294  0.39706  0.75000), residuals and eigenvalues=
  2.91E-13  6.17E-14  9.26E-13  6.66E-14  3.42E-13  4.28E-13  7.18E-10  3.45E-06
 -4.1115E-01 -2.4757E-01 -1.6065E-01 -1.1528E-01  1.7591E-02  9.6865E-02
  1.9299E-01  2.0856E-01
  prteigrs : nnsclo,ikpt=   20   37 max resid (incl. the buffer)=  3.44946E-06
 Non-SCF case, kpt   38 (  0.36029  0.38971  0.75000), residuals and eigenvalues=
  2.82E-13  3.00E-13  8.26E-13  9.69E-13  3.90E-13  5.72E-13  9.72E-08  8.53E-05
 -4.1121E-01 -2.4762E-01 -1.6085E-01 -1.1395E-01  1.5298E-02  9.6720E-02
  1.9907E-01  2.1237E-01
  prteigrs : nnsclo,ikpt=   20   38 max resid (incl. the buffer)=  8.53193E-05
 Non-SCF case, kpt   39 (  0.36765  0.38235  0.75000), residuals and eigenvalues=
  3.04E-13  2.24E-13  6.30E-13  7.41E-13  2.02E-13  8.85E-13  7.27E-06  7.44E-05
 -4.1125E-01 -2.4765E-01 -1.6097E-01 -1.1312E-01  1.3891E-02  9.6632E-02
  2.0519E-01  2.1489E-01
  prteigrs : nnsclo,ikpt=   20   39 max resid (incl. the buffer)=  7.44473E-05
 Non-SCF case, kpt   40 (  0.37500  0.37500  0.75000), residuals and eigenvalues=
  3.02E-13  2.13E-13  4.94E-13  7.60E-13  2.08E-13  7.63E-13  3.55E-07  1.10E-05
 -4.1127E-01 -2.4766E-01 -1.6101E-01 -1.1284E-01  1.3416E-02  9.6602E-02
  2.1030E-01  2.1301E-01
  prteigrs : nnsclo,ikpt=   20   40 max resid (incl. the buffer)=  1.09863E-05


--- !ResultsGS
iteration_state: {dtset: 2, }
comment   : Summary of ground state results
lattice_vectors:
- [  0.0000000,   5.7242639,   5.7242639, ]
- [  5.7242639,   0.0000000,   5.7242639, ]
- [  5.7242639,   5.7242639,   0.0000000, ]
lattice_lengths: [   8.09533,    8.09533,    8.09533, ]
lattice_angles: [ 60.000,  60.000,  60.000, ] # degrees, (23, 13, 12)
lattice_volume:   3.7513617E+02
convergence: {deltae:  0.000E+00, res2:  0.000E+00, residm:  9.910E-13, diffor:  0.000E+00, }
etotal    :  -1.05995658E+01
entropy   :   0.00000000E+00
fermie    :  -6.60951243E-02
cartesian_stress_tensor: null
pressure_GPa: null
xred      :
- [  0.0000E+00,   0.0000E+00,   0.0000E+00, In]
- [  2.5000E-01,   2.5000E-01,   2.5000E-01, As]
cartesian_forces: null
force_length_stats: {min: null, max: null, mean: null, }
...

 Integrated electronic density in atomic spheres:
 ------------------------------------------------
 Atom  Sphere_radius  Integrated_density
    1        2.00000          0.62307559
    2        2.00000          2.38454115
================================================================================

 ----iterations are completed or convergence reached----

 Mean square residual over all n,k,spin=   41.459E-14; max=  99.101E-14
 reduced coordinates (array xred) for    2 atoms
       0.000000000000      0.000000000000      0.000000000000
       0.250000000000      0.250000000000      0.250000000000

 cartesian coordinates (angstrom) at end:
    1      0.00000000000000     0.00000000000000     0.00000000000000
    2      1.51457500000000     1.51457500000000     1.51457500000000
 length scales= 11.448527830861 11.448527830861 11.448527830861 bohr
              =  6.058300000000  6.058300000000  6.058300000000 angstroms
 prteigrs : about to open file testo_DS2_EIG
 Eigenvalues (   eV  ) for nkpt=  40  k points:
 kpt#   1, nband=  8, wtk=  1.00000, kpt=  0.5000  0.0000  0.0000 (reduced coord)
 -11.62796   -6.76480   -2.30404   -2.30404   -0.38677    2.83355    2.83355    5.24408
 kpt#   2, nband=  8, wtk=  1.00000, kpt=  0.4500  0.0000  0.0000 (reduced coord)
 -11.67727   -6.70060   -2.29281   -2.29281   -0.41137    2.84925    2.84925    5.22029
 kpt#   3, nband=  8, wtk=  1.00000, kpt=  0.4000  0.0000  0.0000 (reduced coord)
 -11.78677   -6.45426   -2.25785   -2.25785   -0.35189    2.90262    2.90262    5.11096
 kpt#   4, nband=  8, wtk=  1.00000, kpt=  0.3500  0.0000  0.0000 (reduced coord)
 -11.93533   -6.06733   -2.19994   -2.19994   -0.25280    2.97715    2.97715    4.80647
 kpt#   5, nband=  8, wtk=  1.00000, kpt=  0.3000  0.0000  0.0000 (reduced coord)
 -12.11257   -5.57352   -2.12433   -2.12433   -0.13408    3.04473    3.04473    4.27909
 kpt#   6, nband=  8, wtk=  1.00000, kpt=  0.2500  0.0000  0.0000 (reduced coord)
 -12.31359   -4.99602   -2.03775   -2.03775   -0.02185    3.06026    3.06026    3.66604
 kpt#   7, nband=  8, wtk=  1.00000, kpt=  0.2000  0.0000  0.0000 (reduced coord)
 -12.47450   -4.35653   -1.93971   -1.93971    0.03533    3.00376    3.00376    3.10799
 kpt#   8, nband=  8, wtk=  1.00000, kpt=  0.1500  0.0000  0.0000 (reduced coord)
 -12.61992   -3.67474   -1.84294   -1.84294   -0.05768    2.70765    2.87777    2.87777
 kpt#   9, nband=  8, wtk=  1.00000, kpt=  0.1000  0.0000  0.0000 (reduced coord)
 -12.71963   -2.96747   -1.75903   -1.75903   -0.37656    2.54675    2.73256    2.73256
 kpt#  10, nband=  8, wtk=  1.00000, kpt=  0.0500  0.0000  0.0000 (reduced coord)
 -12.76778   -2.24792   -1.69790   -1.69790   -0.87666    2.55936    2.63306    2.63306
 kpt#  11, nband=  8, wtk=  1.00000, kpt=  0.0000  0.0000  0.0000 (reduced coord)
 -12.76788   -1.67586   -1.67586   -1.67586   -1.35244    2.60165    2.60165    2.60165
 kpt#  12, nband=  8, wtk=  1.00000, kpt=  0.0208  0.0417  0.0625 (reduced coord)
 -12.76073   -2.27942   -1.73755   -1.70245   -0.80893    2.49127    2.65131    2.69430
 kpt#  13, nband=  8, wtk=  1.00000, kpt=  0.0417  0.0833  0.1250 (reduced coord)
 -12.70233   -3.00987   -1.91309   -1.77804   -0.18091    2.28013    2.81063    2.95662
 kpt#  14, nband=  8, wtk=  1.00000, kpt=  0.0625  0.1250  0.1875 (reduced coord)
 -12.57824   -3.70420   -2.17846   -1.89116    0.37766    2.06192    3.08214    3.32892
 kpt#  15, nband=  8, wtk=  1.00000, kpt=  0.0833  0.1667  0.2500 (reduced coord)
 -12.41409   -4.35366   -2.50759   -2.03928    0.83044    1.89230    3.43667    3.58375
 kpt#  16, nband=  8, wtk=  1.00000, kpt=  0.1042  0.2083  0.3125 (reduced coord)
 -12.20888   -4.94420   -2.86812   -2.22030    1.17511    1.79633    3.51256    3.87174
 kpt#  17, nband=  8, wtk=  1.00000, kpt=  0.1250  0.2500  0.3750 (reduced coord)
 -11.99957   -5.46473   -3.23315   -2.43678    1.40740    1.77425    3.32362    4.36127
 kpt#  18, nband=  8, wtk=  1.00000, kpt=  0.1458  0.2917  0.4375 (reduced coord)
 -11.77870   -5.90222   -3.57281   -2.68464    1.54865    1.83778    3.19522    4.91343
 kpt#  19, nband=  8, wtk=  1.00000, kpt=  0.1667  0.3333  0.5000 (reduced coord)
 -11.56637   -6.24373   -3.86384   -2.95638    1.64654    1.98218    3.15760    5.52168
 kpt#  20, nband=  8, wtk=  1.00000, kpt=  0.1875  0.3750  0.5625 (reduced coord)
 -11.38562   -6.48399   -4.08567   -3.23876    1.75485    2.18620    3.20173    6.15810
 kpt#  21, nband=  8, wtk=  1.00000, kpt=  0.2083  0.4167  0.6250 (reduced coord)
 -11.25029   -6.63393   -4.21232   -3.51474    1.90017    2.43340    3.31073    5.49050
 kpt#  22, nband=  8, wtk=  1.00000, kpt=  0.2292  0.4583  0.6875 (reduced coord)
 -11.18216   -6.71674   -4.23399   -3.75862    2.07512    2.67865    3.46078    4.56274
 kpt#  23, nband=  8, wtk=  1.00000, kpt=  0.2500  0.5000  0.7500 (reduced coord)
 -11.15298   -6.72787   -4.18856   -3.89157    2.19972    2.82988    3.51733    4.12029
 kpt#  24, nband=  8, wtk=  1.00000, kpt=  0.2574  0.4926  0.7500 (reduced coord)
 -11.15358   -6.72785   -4.19098   -3.88461    2.18005    2.81635    3.53467    4.14263
 kpt#  25, nband=  8, wtk=  1.00000, kpt=  0.2647  0.4853  0.7500 (reduced coord)
 -11.15524   -6.72791   -4.19880   -3.86338    2.11736    2.78762    3.58720    4.20109
 kpt#  26, nband=  8, wtk=  1.00000, kpt=  0.2721  0.4779  0.7500 (reduced coord)
 -11.15778   -6.72819   -4.21150   -3.82874    2.01331    2.75939    3.66837    4.28515
 kpt#  27, nband=  8, wtk=  1.00000, kpt=  0.2794  0.4706  0.7500 (reduced coord)
 -11.16272   -6.73121   -4.22789   -3.78297    1.87776    2.73660    3.76632    4.38729
 kpt#  28, nband=  8, wtk=  1.00000, kpt=  0.2868  0.4632  0.7500 (reduced coord)
 -11.16646   -6.73229   -4.24591   -3.72769    1.72309    2.71964    3.88297    4.50255
 kpt#  29, nband=  8, wtk=  1.00000, kpt=  0.2941  0.4559  0.7500 (reduced coord)
 -11.17630   -6.73682   -4.26513   -3.66665    1.55809    2.70171    4.00939    4.62709
 kpt#  30, nband=  8, wtk=  1.00000, kpt=  0.3015  0.4485  0.7500 (reduced coord)
 -11.18064   -6.73855   -4.28359   -3.59908    1.39157    2.68927    4.14589    4.75827
 kpt#  31, nband=  8, wtk=  1.00000, kpt=  0.3088  0.4412  0.7500 (reduced coord)
 -11.17120   -6.73254   -4.30018   -3.52330    1.22904    2.68396    4.29263    4.90921
 kpt#  32, nband=  8, wtk=  1.00000, kpt=  0.3162  0.4338  0.7500 (reduced coord)
 -11.17562   -6.73497   -4.31664   -3.45088    1.07120    2.67266    4.44166    5.04677
 kpt#  33, nband=  8, wtk=  1.00000, kpt=  0.3235  0.4265  0.7500 (reduced coord)
 -11.18546   -6.74066   -4.33333   -3.37901    0.92135    2.66036    4.59509    5.17890
 kpt#  34, nband=  8, wtk=  1.00000, kpt=  0.3309  0.4191  0.7500 (reduced coord)
 -11.18933   -6.74298   -4.34659   -3.30955    0.78476    2.65108    4.75255    5.31350
 kpt#  35, nband=  8, wtk=  1.00000, kpt=  0.3382  0.4118  0.7500 (reduced coord)
 -11.19275   -6.74508   -4.35799   -3.24487    0.66290    2.64293    4.91309    5.44277
 kpt#  36, nband=  8, wtk=  1.00000, kpt=  0.3456  0.4044  0.7500 (reduced coord)
 -11.18554   -6.73502   -4.36411   -3.18490    0.56330    2.64126    5.08693    5.56934
 kpt#  37, nband=  8, wtk=  1.00000, kpt=  0.3529  0.3971  0.7500 (reduced coord)
 -11.18795   -6.73682   -4.37158   -3.13695    0.47869    2.63583    5.25139    5.67519
 kpt#  38, nband=  8, wtk=  1.00000, kpt=  0.3603  0.3897  0.7500 (reduced coord)
 -11.18971   -6.73815   -4.37694   -3.10079    0.41628    2.63188    5.41701    5.77883
 kpt#  39, nband=  8, wtk=  1.00000, kpt=  0.3676  0.3824  0.7500 (reduced coord)
 -11.19078   -6.73896   -4.38018   -3.07826    0.37799    2.62949    5.58360    5.84745
 kpt#  40, nband=  8, wtk=  1.00000, kpt=  0.3750  0.3750  0.7500 (reduced coord)
 -11.19114   -6.73924   -4.38125   -3.07060    0.36508    2.62869    5.72265    5.79630

== END DATASET(S) ==============================================================
================================================================================
  
 -outvars: echo values of variables after computation  --------
            acell      1.1448527831E+01  1.1448527831E+01  1.1448527831E+01 Bohr
              amu      1.14820000E+02  7.49215900E+01
           diemac      1.20000000E+01
             ecut      4.00000000E+00 Hartree
           enunit1          0
           enunit2          1
           etotal1    -1.0599565796E+01
            fcart1     1.0335751245E-31 -1.0335751245E-31 -1.1484168050E-32
                      -1.0335751245E-31  1.0335751245E-31  1.1484168050E-32
-          fftalg         112
           getden1          0
           getden2         -1
             iscf1          7
             iscf2         -2
           istwfk2       1    0    0    0    0    0    0    0    0    0
                         1    0    0    0    0    0    0    0    0    0
                         0    0    0    0    0    0    0    0    0    0
                         0    0    0    0    0    0    0    0    0    0
           jdtset        1    2
              kpt1    -1.25000000E-01 -2.50000000E-01  0.00000000E+00
                      -1.25000000E-01  5.00000000E-01  0.00000000E+00
                      -2.50000000E-01 -3.75000000E-01  0.00000000E+00
                      -1.25000000E-01 -3.75000000E-01  1.25000000E-01
                      -1.25000000E-01  2.50000000E-01  0.00000000E+00
                      -2.50000000E-01  3.75000000E-01  0.00000000E+00
                      -3.75000000E-01  5.00000000E-01  0.00000000E+00
                      -2.50000000E-01  5.00000000E-01  1.25000000E-01
                      -1.25000000E-01  0.00000000E+00  0.00000000E+00
                      -3.75000000E-01  0.00000000E+00  0.00000000E+00
              kpt2     5.00000000E-01  0.00000000E+00  0.00000000E+00
                       4.50000000E-01  0.00000000E+00  0.00000000E+00
                       4.00000000E-01  0.00000000E+00  0.00000000E+00
                       3.50000000E-01  0.00000000E+00  0.00000000E+00
                       3.00000000E-01  0.00000000E+00  0.00000000E+00
                       2.50000000E-01  0.00000000E+00  0.00000000E+00
                       2.00000000E-01  0.00000000E+00  0.00000000E+00
                       1.50000000E-01  0.00000000E+00  0.00000000E+00
                       1.00000000E-01  0.00000000E+00  0.00000000E+00
                       5.00000000E-02  0.00000000E+00  0.00000000E+00
                       0.00000000E+00  0.00000000E+00  0.00000000E+00
                       2.08333333E-02  4.16666667E-02  6.25000000E-02
                       4.16666667E-02  8.33333333E-02  1.25000000E-01
                       6.25000000E-02  1.25000000E-01  1.87500000E-01
                       8.33333333E-02  1.66666667E-01  2.50000000E-01
                       1.04166667E-01  2.08333333E-01  3.12500000E-01
                       1.25000000E-01  2.50000000E-01  3.75000000E-01
                       1.45833333E-01  2.91666667E-01  4.37500000E-01
                       1.66666667E-01  3.33333333E-01  5.00000000E-01
                       1.87500000E-01  3.75000000E-01  5.62500000E-01
                       2.08333333E-01  4.16666667E-01  6.25000000E-01
                       2.29166667E-01  4.58333333E-01  6.87500000E-01
                       2.50000000E-01  5.00000000E-01  7.50000000E-01
                       2.57352941E-01  4.92647059E-01  7.50000000E-01
                       2.64705882E-01  4.85294118E-01  7.50000000E-01
                       2.72058824E-01  4.77941176E-01  7.50000000E-01
                       2.79411765E-01  4.70588235E-01  7.50000000E-01
                       2.86764706E-01  4.63235294E-01  7.50000000E-01
                       2.94117647E-01  4.55882353E-01  7.50000000E-01
                       3.01470588E-01  4.48529412E-01  7.50000000E-01
                       3.08823529E-01  4.41176471E-01  7.50000000E-01
                       3.16176471E-01  4.33823529E-01  7.50000000E-01
                       3.23529412E-01  4.26470588E-01  7.50000000E-01
                       3.30882353E-01  4.19117647E-01  7.50000000E-01
                       3.38235294E-01  4.11764706E-01  7.50000000E-01
                       3.45588235E-01  4.04411765E-01  7.50000000E-01
                       3.52941176E-01  3.97058824E-01  7.50000000E-01
                       3.60294118E-01  3.89705882E-01  7.50000000E-01
                       3.67647059E-01  3.82352941E-01  7.50000000E-01
                       3.75000000E-01  3.75000000E-01  7.50000000E-01
           kptopt1          1
           kptopt2         -3
         kptrlatt        4   -4    4     -4    4    4     -4   -4    4
          kptrlen1     4.57941113E+01
          kptrlen2     3.00000000E+01
P           mkmem1         10
P           mkmem2         40
            natom           2
            nband1          5
            nband2          8
           nbdbuf1          0
           nbdbuf2          2
           ndtset           2
            ngfft          16      16      16
             nkpt1         10
             nkpt2         40
            nstep          20
             nsym          24
           ntypat           2
              occ      2.000000  2.000000  2.000000  2.000000  0.000000
            rprim      0.0000000000E+00  5.0000000000E-01  5.0000000000E-01
                       5.0000000000E-01  0.0000000000E+00  5.0000000000E-01
                       5.0000000000E-01  5.0000000000E-01  0.0000000000E+00
           shiftk      5.00000000E-01  5.00000000E-01  5.00000000E-01
          spgroup         216
           strten1     4.0618614008E-04  4.0618614008E-04  4.0618614008E-04
                       0.0000000000E+00  0.0000000000E+00  0.0000000000E+00
           symrel      1  0  0   0  1  0   0  0  1       0 -1  1   0 -1  0   1 -1  0
                      -1  0  0  -1  0  1  -1  1  0       0  1 -1   1  0 -1   0  0 -1
                      -1  0  0  -1  1  0  -1  0  1       0 -1  1   1 -1  0   0 -1  0
                       1  0  0   0  0  1   0  1  0       0  1 -1   0  0 -1   1  0 -1
                      -1  0  1  -1  1  0  -1  0  0       0 -1  0   1 -1  0   0 -1  1
                       1  0 -1   0  0 -1   0  1 -1       0  1  0   0  0  1   1  0  0
                       1  0 -1   0  1 -1   0  0 -1       0 -1  0   0 -1  1   1 -1  0
                      -1  0  1  -1  0  0  -1  1  0       0  1  0   1  0  0   0  0  1
                       0  0 -1   0  1 -1   1  0 -1       1 -1  0   0 -1  1   0 -1  0
                       0  0  1   1  0  0   0  1  0      -1  1  0  -1  0  0  -1  0  1
                       0  0  1   0  1  0   1  0  0       1 -1  0   0 -1  0   0 -1  1
                       0  0 -1   1  0 -1   0  1 -1      -1  1  0  -1  0  1  -1  0  0
           toldfe1     1.00000000E-06 Hartree
           toldfe2     0.00000000E+00 Hartree
           tolwfr1     0.00000000E+00
           tolwfr2     1.00000000E-12
            typat      1  2
              wtk1       0.09375    0.09375    0.09375    0.18750    0.09375    0.09375
                         0.09375    0.18750    0.03125    0.03125
              wtk2       1.00000    1.00000    1.00000    1.00000    1.00000    1.00000
                         1.00000    1.00000    1.00000    1.00000    1.00000    1.00000
                         1.00000    1.00000    1.00000    1.00000    1.00000    1.00000
                         1.00000    1.00000    1.00000    1.00000    1.00000    1.00000
                         1.00000    1.00000    1.00000    1.00000    1.00000    1.00000
                         1.00000    1.00000    1.00000    1.00000    1.00000    1.00000
                         1.00000    1.00000    1.00000    1.00000
           xangst      0.0000000000E+00  0.0000000000E+00  0.0000000000E+00
                       1.5145750000E+00  1.5145750000E+00  1.5145750000E+00
            xcart      0.0000000000E+00  0.0000000000E+00  0.0000000000E+00
                       2.8621319577E+00  2.8621319577E+00  2.8621319577E+00
             xred      0.0000000000E+00  0.0000000000E+00  0.0000000000E+00
                       2.5000000000E-01  2.5000000000E-01  2.5000000000E-01
            znucl       49.00000   33.00000

================================================================================


- Timing analysis has been suppressed with timopt=0



================================================================================

 Suggested references for the acknowledgment of ABINIT usage.

 The users of ABINIT have little formal obligations with respect to the ABINIT group
 (those specified in the GNU General Public License, http://www.gnu.org/copyleft/gpl.txt).
 However, it is common practice in the scientific literature,
 to acknowledge the efforts of people that have made the research possible.
 In this spirit, please find below suggested citations of work written by ABINIT developers,
 corresponding to implementations inside of ABINIT that you have used in the present run.
 Note also that it will be of great value to readers of publications presenting these results,
 to read papers enabling them to understand the theoretical formalism and details
 of the ABINIT implementation.
 For information on why they are suggested, see also https://docs.abinit.org/theory/acknowledgments.
-
- [1] The Abinit project: Impact, environment and recent developments.
- Computer Phys. Comm. 248, 107042 (2020).
- X.Gonze, B. Amadon, G. Antonius, F.Arnardi, L.Baguet, J.-M.Beuken,
- J.Bieder, F.Bottin, J.Bouchet, E.Bousquet, N.Brouwer, F.Bruneval,
- G.Brunin, T.Cavignac, J.-B. Charraud, Wei Chen, M.Cote, S.Cottenier,
- J.Denier, G.Geneste, Ph.Ghosez, M.Giantomassi, Y.Gillet, O.Gingras,
- D.R.Hamann, G.Hautier, Xu He, N.Helbig, N.Holzwarth, Y.Jia, F.Jollet,
- W.Lafargue-Dit-Hauret, K.Lejaeghere, M.A.L.Marques, A.Martin, C.Martins,
- H.P.C. Miranda, F.Naccarato, K. Persson, G.Petretto, V.Planes, Y.Pouillon,
- S.Prokhorenko, F.Ricci, G.-M.Rignanese, A.H.Romero, M.M.Schmitt, M.Torrent,
- M.J.van Setten, B.Van Troeye, M.J.Verstraete, G.Zerah and J.W.Zwanzig
- Comment: the fifth generic paper describing the ABINIT project.
- Note that a version of this paper, that is not formatted for Computer Phys. Comm. 
- is available at https://www.abinit.org/sites/default/files/ABINIT20.pdf .
- The licence allows the authors to put it on the Web.
- DOI and bibtex: see https://docs.abinit.org/theory/bibliography/#gonze2020
-
- [2] ABINIT: Overview, and focus on selected capabilities
- J. Chem. Phys. 152, 124102 (2020).
- A. Romero, D.C. Allan, B. Amadon, G. Antonius, T. Applencourt, L.Baguet,
- J.Bieder, F.Bottin, J.Bouchet, E.Bousquet, F.Bruneval,
- G.Brunin, D.Caliste, M.Cote,
- J.Denier, C. Dreyer, Ph.Ghosez, M.Giantomassi, Y.Gillet, O.Gingras,
- D.R.Hamann, G.Hautier, F.Jollet, G. Jomard,
- A.Martin, 
- H.P.C. Miranda, F.Naccarato, G.Petretto, N.A. Pike, V.Planes,
- S.Prokhorenko, T. Rangel, F.Ricci, G.-M.Rignanese, M.Royo, M.Stengel, M.Torrent,
- M.J.van Setten, B.Van Troeye, M.J.Verstraete, J.Wiktor, J.W.Zwanziger, and X.Gonze.
- Comment: a global overview of ABINIT, with focus on selected capabilities .
- Note that a version of this paper, that is not formatted for J. Chem. Phys 
- is available at https://www.abinit.org/sites/default/files/ABINIT20_JPC.pdf .
- The licence allows the authors to put it on the Web.
- DOI and bibtex: see https://docs.abinit.org/theory/bibliography/#romero2020
-
- [3] Recent developments in the ABINIT software package.
- Computer Phys. Comm. 205, 106 (2016).
- X.Gonze, F.Jollet, F.Abreu Araujo, D.Adams, B.Amadon, T.Applencourt,
- C.Audouze, J.-M.Beuken, J.Bieder, A.Bokhanchuk, E.Bousquet, F.Bruneval
- D.Caliste, M.Cote, F.Dahm, F.Da Pieve, M.Delaveau, M.Di Gennaro,
- B.Dorado, C.Espejo, G.Geneste, L.Genovese, A.Gerossier, M.Giantomassi,
- Y.Gillet, D.R.Hamann, L.He, G.Jomard, J.Laflamme Janssen, S.Le Roux,
- A.Levitt, A.Lherbier, F.Liu, I.Lukacevic, A.Martin, C.Martins,
- M.J.T.Oliveira, S.Ponce, Y.Pouillon, T.Rangel, G.-M.Rignanese,
- A.H.Romero, B.Rousseau, O.Rubel, A.A.Shukri, M.Stankovski, M.Torrent,
- M.J.Van Setten, B.Van Troeye, M.J.Verstraete, D.Waroquier, J.Wiktor,
- B.Xu, A.Zhou, J.W.Zwanziger.
- Comment: the fourth generic paper describing the ABINIT project.
- Note that a version of this paper, that is not formatted for Computer Phys. Comm. 
- is available at https://www.abinit.org/sites/default/files/ABINIT16.pdf .
- The licence allows the authors to put it on the Web.
- DOI and bibtex: see https://docs.abinit.org/theory/bibliography/#gonze2016
-
- And optionally:
-
- [4] ABINIT: First-principles approach of materials and nanosystem properties.
- Computer Phys. Comm. 180, 2582-2615 (2009).
- X. Gonze, B. Amadon, P.-M. Anglade, J.-M. Beuken, F. Bottin, P. Boulanger, F. Bruneval,
- D. Caliste, R. Caracas, M. Cote, T. Deutsch, L. Genovese, Ph. Ghosez, M. Giantomassi
- S. Goedecker, D.R. Hamann, P. Hermet, F. Jollet, G. Jomard, S. Leroux, M. Mancini, S. Mazevet,
- M.J.T. Oliveira, G. Onida, Y. Pouillon, T. Rangel, G.-M. Rignanese, D. Sangalli, R. Shaltaf,
- M. Torrent, M.J. Verstraete, G. Zerah, J.W. Zwanziger
- Comment: the third generic paper describing the ABINIT project.
- Note that a version of this paper, that is not formatted for Computer Phys. Comm. 
- is available at https://www.abinit.org/sites/default/files/ABINIT_CPC_v10.pdf .
- The licence allows the authors to put it on the Web.
- DOI and bibtex: see https://docs.abinit.org/theory/bibliography/#gonze2009
-
- Proc.   0 individual time (sec): cpu=          0.9  wall=         25.9

================================================================================

 Calculation completed.
.Delivered   1 WARNINGs and   5 COMMENTs to log file.
+Overall time at end (sec) : cpu=          0.9  wall=         25.9
