
.Version 9.6.2 of ABINIT 
.(MPI version, prepared for a x86_64_linux_gnu9.4 computer) 

.Copyright (C) 1998-2021 ABINIT group . 
 ABINIT comes with ABSOLUTELY NO WARRANTY.
 It is free software, and you are welcome to redistribute it
 under certain conditions (GNU General Public License,
 see ~abinit/COPYING or http://www.gnu.org/copyleft/gpl.txt).

 ABINIT is a project of the Universite Catholique de Louvain,
 Corning Inc. and other collaborators, see ~abinit/doc/developers/contributors.txt .
 Please read https://docs.abinit.org/theory/acknowledgments for suggested
 acknowledgments of the ABINIT effort.
 For more information, see https://www.abinit.org .

.Starting date : Thu 20 Oct 2022.
- ( at 19h56 )
  
- input  file    -> InAs.in
- output file    -> InAs.out
- root for input  files -> testi
- root for output files -> tseto


 DATASET    1 : space group Cm (#  8); Bravais mC (1-face-center monocl.)
================================================================================
 Values of the parameters that define the memory need for DATASET  1.
     intxc =       0    ionmov =       0      iscf =       7    lmnmax =       1
     lnmax =       1     mgfft =      16  mpssoang =       2    mqgrid =    3001
     natom =       2  nloc_mem =       1    nspden =       1   nspinor =       1
    nsppol =       1      nsym =       2    n1xccc =    2501    ntypat =       2
    occopt =       1   xclevel =       1
-    mband =           5        mffmem =           1         mkmem =          72
       mpw =         149          nfft =        4096          nkpt =          72
================================================================================
P This job should need less than                       2.981 Mbytes of memory.
  Rough estimation (10% accuracy) of disk space for files :
_ WF disk file :      0.820 Mbytes ; DEN or POT disk file :      0.033 Mbytes.
================================================================================


 DATASET    2 : space group Cm (#  8); Bravais mC (1-face-center monocl.)
================================================================================
 Values of the parameters that define the memory need for DATASET  2.
     intxc =       0    ionmov =       0      iscf =      -2    lmnmax =       1
     lnmax =       1     mgfft =      16  mpssoang =       2    mqgrid =    3001
     natom =       2  nloc_mem =       1    nspden =       1   nspinor =       1
    nsppol =       1      nsym =       2    n1xccc =    2501    ntypat =       2
    occopt =       1   xclevel =       1
-    mband =           8        mffmem =           1         mkmem =          40
       mpw =         149          nfft =        4096          nkpt =          40
================================================================================
P This job should need less than                       2.331 Mbytes of memory.
  Rough estimation (10% accuracy) of disk space for files :
_ WF disk file :      0.730 Mbytes ; DEN or POT disk file :      0.033 Mbytes.
================================================================================

--------------------------------------------------------------------------------
------------- Echo of variables that govern the present computation ------------
--------------------------------------------------------------------------------
-
- outvars: echo of selected default values                                      
-   iomode0 =  0 , fftalg0 =112 , wfoptalg0 =  0
-
- outvars: echo of global parameters not present in the input file              
-  max_nthreads =    0
-
 -outvars: echo values of preprocessed input variables --------
            acell      1.1448527831E+01  1.1448527831E+01  1.1240657956E+01 Bohr
              amu      1.14820000E+02  7.49215900E+01
           diemac      1.20000000E+01
             ecut      4.00000000E+00 Hartree
           enunit1          0
           enunit2          1
-          fftalg         112
           getden1          0
           getden2         -1
             iscf1          7
             iscf2         -2
           istwfk2       1    0    0    0    0    0    0    0    0    0
                         1    0    0    0    0    0    0    0    0    0
                         0    0    0    0    0    0    0    0    0    0
                         0    0    0    0    0    0    0    0    0    0
                       outvar_i_n : Printing only first  50 k-points.
           jdtset        1    2
              kpt1     0.00000000E+00 -1.25000000E-01  0.00000000E+00
                       0.00000000E+00 -3.75000000E-01  0.00000000E+00
                       1.25000000E-01 -2.50000000E-01  0.00000000E+00
                       0.00000000E+00 -2.50000000E-01  1.25000000E-01
                       1.25000000E-01 -1.25000000E-01  1.25000000E-01
                       0.00000000E+00 -1.25000000E-01  2.50000000E-01
                       1.25000000E-01  5.00000000E-01  0.00000000E+00
                       2.50000000E-01 -3.75000000E-01  0.00000000E+00
                       0.00000000E+00  5.00000000E-01  1.25000000E-01
                       1.25000000E-01 -3.75000000E-01  1.25000000E-01
                       2.50000000E-01 -2.50000000E-01  1.25000000E-01
                       3.75000000E-01 -1.25000000E-01  1.25000000E-01
                       0.00000000E+00 -3.75000000E-01  2.50000000E-01
                       1.25000000E-01 -2.50000000E-01  2.50000000E-01
                       2.50000000E-01 -1.25000000E-01  2.50000000E-01
                       0.00000000E+00 -2.50000000E-01  3.75000000E-01
                       1.25000000E-01 -1.25000000E-01  3.75000000E-01
                       0.00000000E+00 -1.25000000E-01  5.00000000E-01
                       1.25000000E-01  2.50000000E-01  0.00000000E+00
                       2.50000000E-01  3.75000000E-01  0.00000000E+00
                       3.75000000E-01  5.00000000E-01  0.00000000E+00
                       0.00000000E+00  2.50000000E-01  1.25000000E-01
                       1.25000000E-01  3.75000000E-01  1.25000000E-01
                       2.50000000E-01  5.00000000E-01  1.25000000E-01
                       3.75000000E-01 -3.75000000E-01  1.25000000E-01
                       5.00000000E-01 -2.50000000E-01  1.25000000E-01
                      -3.75000000E-01 -1.25000000E-01  1.25000000E-01
                       0.00000000E+00  3.75000000E-01  2.50000000E-01
                       1.25000000E-01  5.00000000E-01  2.50000000E-01
                       2.50000000E-01 -3.75000000E-01  2.50000000E-01
                       3.75000000E-01 -2.50000000E-01  2.50000000E-01
                       5.00000000E-01 -1.25000000E-01  2.50000000E-01
                       0.00000000E+00  5.00000000E-01  3.75000000E-01
                       1.25000000E-01 -3.75000000E-01  3.75000000E-01
                       2.50000000E-01 -2.50000000E-01  3.75000000E-01
                       3.75000000E-01 -1.25000000E-01  3.75000000E-01
                       0.00000000E+00 -3.75000000E-01  5.00000000E-01
                       1.25000000E-01 -2.50000000E-01  5.00000000E-01
                       0.00000000E+00 -2.50000000E-01 -3.75000000E-01
                       0.00000000E+00 -1.25000000E-01 -2.50000000E-01
                       0.00000000E+00  0.00000000E+00  1.25000000E-01
                       1.25000000E-01  1.25000000E-01  1.25000000E-01
                       2.50000000E-01  2.50000000E-01  1.25000000E-01
                       3.75000000E-01  3.75000000E-01  1.25000000E-01
                       5.00000000E-01  5.00000000E-01  1.25000000E-01
                      -3.75000000E-01 -3.75000000E-01  1.25000000E-01
                      -2.50000000E-01 -2.50000000E-01  1.25000000E-01
                      -1.25000000E-01 -1.25000000E-01  1.25000000E-01
                       1.25000000E-01  2.50000000E-01  2.50000000E-01
                       2.50000000E-01  3.75000000E-01  2.50000000E-01
              kpt2     5.00000000E-01  0.00000000E+00  0.00000000E+00
                       4.50000000E-01  0.00000000E+00  0.00000000E+00
                       4.00000000E-01  0.00000000E+00  0.00000000E+00
                       3.50000000E-01  0.00000000E+00  0.00000000E+00
                       3.00000000E-01  0.00000000E+00  0.00000000E+00
                       2.50000000E-01  0.00000000E+00  0.00000000E+00
                       2.00000000E-01  0.00000000E+00  0.00000000E+00
                       1.50000000E-01  0.00000000E+00  0.00000000E+00
                       1.00000000E-01  0.00000000E+00  0.00000000E+00
                       5.00000000E-02  0.00000000E+00  0.00000000E+00
                       0.00000000E+00  0.00000000E+00  0.00000000E+00
                       2.08333333E-02  4.16666667E-02  6.25000000E-02
                       4.16666667E-02  8.33333333E-02  1.25000000E-01
                       6.25000000E-02  1.25000000E-01  1.87500000E-01
                       8.33333333E-02  1.66666667E-01  2.50000000E-01
                       1.04166667E-01  2.08333333E-01  3.12500000E-01
                       1.25000000E-01  2.50000000E-01  3.75000000E-01
                       1.45833333E-01  2.91666667E-01  4.37500000E-01
                       1.66666667E-01  3.33333333E-01  5.00000000E-01
                       1.87500000E-01  3.75000000E-01  5.62500000E-01
                       2.08333333E-01  4.16666667E-01  6.25000000E-01
                       2.29166667E-01  4.58333333E-01  6.87500000E-01
                       2.50000000E-01  5.00000000E-01  7.50000000E-01
                       2.57352941E-01  4.92647059E-01  7.50000000E-01
                       2.64705882E-01  4.85294118E-01  7.50000000E-01
                       2.72058824E-01  4.77941176E-01  7.50000000E-01
                       2.79411765E-01  4.70588235E-01  7.50000000E-01
                       2.86764706E-01  4.63235294E-01  7.50000000E-01
                       2.94117647E-01  4.55882353E-01  7.50000000E-01
                       3.01470588E-01  4.48529412E-01  7.50000000E-01
                       3.08823529E-01  4.41176471E-01  7.50000000E-01
                       3.16176471E-01  4.33823529E-01  7.50000000E-01
                       3.23529412E-01  4.26470588E-01  7.50000000E-01
                       3.30882353E-01  4.19117647E-01  7.50000000E-01
                       3.38235294E-01  4.11764706E-01  7.50000000E-01
                       3.45588235E-01  4.04411765E-01  7.50000000E-01
                       3.52941176E-01  3.97058824E-01  7.50000000E-01
                       3.60294118E-01  3.89705882E-01  7.50000000E-01
                       3.67647059E-01  3.82352941E-01  7.50000000E-01
                       3.75000000E-01  3.75000000E-01  7.50000000E-01
                       outvar_i_n : Printing only first  50 k-points.
           kptopt1          1
           kptopt2         -3
         kptrlatt        4    4   -4     -4    4    4      4   -4    4
          kptrlen1     4.53802760E+01
          kptrlen2     3.00000000E+01
P           mkmem1         72
P           mkmem2         40
            natom           2
            nband1          5
            nband2          8
           nbdbuf1          0
           nbdbuf2          2
           ndtset           2
            ngfft          16      16      16
             nkpt1         72
             nkpt2         40
            nstep          20
             nsym           2
           ntypat           2
              occ      2.000000  2.000000  2.000000  2.000000  0.000000
            rprim      0.0000000000E+00  5.0000000000E-01  5.0000000000E-01
                       5.0000000000E-01  0.0000000000E+00  5.0000000000E-01
                       5.0000000000E-01  5.0000000000E-01  0.0000000000E+00
           shiftk1    -5.00000000E-01  5.00000000E-01  5.00000000E-01
           shiftk2     5.00000000E-01  5.00000000E-01  5.00000000E-01
          spgroup           8
           symrel      1  0  0   0  1  0   0  0  1       0  1  0   1  0  0   0  0  1
           toldfe1     1.00000000E-06 Hartree
           toldfe2     0.00000000E+00 Hartree
           tolwfr1     0.00000000E+00
           tolwfr2     1.00000000E-12
            typat      1  2
              wtk1       0.01563    0.01563    0.01563    0.01563    0.01563    0.01563
                         0.01563    0.01563    0.01563    0.01563    0.01563    0.01563
                         0.01563    0.01563    0.01563    0.01563    0.01563    0.01563
                         0.01563    0.01563    0.01563    0.01563    0.01563    0.01563
                         0.01563    0.01563    0.01563    0.01563    0.01563    0.01563
                         0.01563    0.01563    0.01563    0.01563    0.01563    0.01563
                         0.01563    0.01563    0.01563    0.01563    0.00781    0.00781
                         0.00781    0.00781    0.00781    0.00781    0.00781    0.00781
                         0.01563    0.01563
              wtk2       1.00000    1.00000    1.00000    1.00000    1.00000    1.00000
                         1.00000    1.00000    1.00000    1.00000    1.00000    1.00000
                         1.00000    1.00000    1.00000    1.00000    1.00000    1.00000
                         1.00000    1.00000    1.00000    1.00000    1.00000    1.00000
                         1.00000    1.00000    1.00000    1.00000    1.00000    1.00000
                         1.00000    1.00000    1.00000    1.00000    1.00000    1.00000
                         1.00000    1.00000    1.00000    1.00000
                       outvars : Printing only first  50 k-points.
           xangst      0.0000000000E+00  0.0000000000E+00  0.0000000000E+00
                       1.5008250000E+00  1.5008250000E+00  1.5145750000E+00
            xcart      0.0000000000E+00  0.0000000000E+00  0.0000000000E+00
                       2.8361482234E+00  2.8361482234E+00  2.8621319577E+00
             xred      0.0000000000E+00  0.0000000000E+00  0.0000000000E+00
                       2.5000000000E-01  2.5000000000E-01  2.5000000000E-01
            znucl       49.00000   33.00000

================================================================================

 chkinp: Checking input parameters for consistency, jdtset=   1.

 chkinp: Checking input parameters for consistency, jdtset=   2.

================================================================================
== DATASET  1 ==================================================================
-   mpi_nproc: 1, omp_nthreads: -1 (-1 if OMP is not activated)


--- !DatasetInfo
iteration_state: {dtset: 1, }
dimensions: {natom: 2, nkpt: 72, mband: 5, nsppol: 1, nspinor: 1, nspden: 1, mpw: 149, }
cutoff_energies: {ecut:   4.0, pawecutdg:  -1.0, }
electrons: {nelect:   8.00000000E+00, charge:   0.00000000E+00, occopt:   1.00000000E+00, tsmear:   1.00000000E-02, }
meta: {optdriver: 0, ionmov: 0, optcell: 0, iscf: 7, paral_kgb: 0, }
...

 Exchange-correlation functional for the present dataset will be:
  LDA: new Teter (4/93) with spin-polarized option - ixc=1
 Citation for XC functional:
  S. Goedecker, M. Teter, J. Huetter, PRB 54, 1703 (1996)

 Real(R)+Recip(G) space primitive vectors, cartesian coordinates (Bohr,Bohr^-1):
 R(1)=  0.0000000  5.7242639  5.7242639  G(1)= -0.0873475  0.0873475  0.0873475
 R(2)=  5.7242639  0.0000000  5.7242639  G(2)=  0.0873475 -0.0873475  0.0873475
 R(3)=  5.6203290  5.6203290  0.0000000  G(3)=  0.0889628  0.0889628 -0.0889628
 Unit cell volume ucvol=  3.6832486E+02 bohr^3
 Angles (23,13,12)=  6.00000000E+01  6.00000000E+01  6.00000000E+01 degrees

 getcut: wavevector=  0.0000  0.0000  0.0000  ngfft=  16  16  16
         ecut(hartree)=      4.000   => boxcut(ratio)=   2.19542

--- Pseudopotential description ------------------------------------------------
- pspini: atom type   1  psp file is 49in.pspnc
- pspatm: opening atomic psp file    49in.pspnc
-  Troullier-Martins psp for element  In        Thu Oct 27 17:43:15 EDT 1994
- 49.00000   3.00000    940714                znucl, zion, pspdat
    1    1    1    0      2001   0.00000      pspcod,pspxc,lmax,lloc,mmax,r2well
    0   8.236  12.726    0   2.1883691        l,e99.0,e99.9,nproj,rcpsp
   0.00000000   0.00000000   0.00000000   0.00000000     rms, ekb1, ekb2, epsatm
    1   3.329   5.528    1   2.6396875        l,e99.0,e99.9,nproj,rcpsp
   0.00000000   0.00000000   0.00000000   0.00000000     rms, ekb1, ekb2, epsatm
    3.24177624483359    0.09532364101432    2.83397955305767   rchrg,fchrg,qchrg
  pspatm : epsatm=   39.73038112
         --- l  ekb(1:nproj) -->
             1    0.789729
 pspatm: atomic psp has been read  and splines computed

- pspini: atom type   2  psp file is 33as.pspnc
- pspatm: opening atomic psp file    33as.pspnc
-  Troullier-Martins psp for element  As        Thu Oct 27 17:37:14 EDT 1994
- 33.00000   5.00000    940714                znucl, zion, pspdat
    1    1    1    1      2001   0.00000      pspcod,pspxc,lmax,lloc,mmax,r2well
    0   4.772  10.829    1   2.5306160        l,e99.0,e99.9,nproj,rcpsp
   0.00000000   0.00000000   0.00000000   0.00000000     rms, ekb1, ekb2, epsatm
    1   2.745   5.580    0   2.5306160        l,e99.0,e99.9,nproj,rcpsp
   0.00000000   0.00000000   0.00000000   0.00000000     rms, ekb1, ekb2, epsatm
    2.05731715564010    0.36322996461007    2.76014815959125   rchrg,fchrg,qchrg
  pspatm : epsatm=   27.20579911
         --- l  ekb(1:nproj) -->
             0    0.838751
 pspatm: atomic psp has been read  and splines computed

   5.35489442E+02                                ecore*ucvol(ha*bohr**3)
--------------------------------------------------------------------------------

_setup2: Arith. and geom. avg. npw (full set) are     140.602     140.569

================================================================================

--- !BeginCycle
iteration_state: {dtset: 1, }
solver: {iscf: 7, nstep: 20, nline: 4, wfoptalg: 0, }
tolerances: {toldfe: 1.00E-06, }
...

     iter   Etot(hartree)      deltaE(h)  residm     vres2
 ETOT  1  -10.593914989457    -1.059E+01 1.215E-02 3.459E+00
 ETOT  2  -10.600712295249    -6.797E-03 4.661E-05 2.110E-01
 ETOT  3  -10.600972393073    -2.601E-04 1.338E-05 1.327E-02
 ETOT  4  -10.600990979207    -1.859E-05 1.098E-06 7.407E-04
 ETOT  5  -10.600991869042    -8.898E-07 1.601E-07 1.509E-06
 ETOT  6  -10.600991870147    -1.106E-09 1.457E-08 5.997E-08

 At SCF step    6, etot is converged : 
  for the second time, diff in etot=  1.106E-09 < toldfe=  1.000E-06

 Cartesian components of stress tensor (hartree/bohr^3)
  sigma(1 1)=  3.84582326E-04  sigma(3 2)=  1.39216703E-05
  sigma(2 2)=  3.84582326E-04  sigma(3 1)=  1.39216703E-05
  sigma(3 3)=  4.00328845E-04  sigma(2 1)= -2.64422183E-05


--- !ResultsGS
iteration_state: {dtset: 1, }
comment   : Summary of ground state results
lattice_vectors:
- [  0.0000000,   5.7242639,   5.7242639, ]
- [  5.7242639,   0.0000000,   5.7242639, ]
- [  5.6203290,   5.6203290,   0.0000000, ]
lattice_lengths: [   8.09533,    8.09533,    7.94835, ]
lattice_angles: [ 60.000,  60.000,  60.000, ] # degrees, (23, 13, 12)
lattice_volume:   3.6832486E+02
convergence: {deltae: -1.106E-09, res2:  5.997E-08, residm:  1.457E-08, diffor: null, }
etotal    :  -1.06009919E+01
entropy   :   0.00000000E+00
fermie    :  -6.19884441E-02
cartesian_stress_tensor: # hartree/bohr^3
- [  3.84582326E-04,  -2.64422183E-05,   1.39216703E-05, ]
- [ -2.64422183E-05,   3.84582326E-04,   1.39216703E-05, ]
- [  1.39216703E-05,   1.39216703E-05,   4.00328845E-04, ]
pressure_GPa:  -1.1469E+01
xred      :
- [  0.0000E+00,   0.0000E+00,   0.0000E+00, In]
- [  2.5000E-01,   2.5000E-01,   2.5000E-01, As]
cartesian_forces: # hartree/bohr
- [  5.94373492E-04,   5.94373492E-04,  -1.05510994E-03, ]
- [ -5.94373492E-04,  -5.94373492E-04,   1.05510994E-03, ]
force_length_stats: {min:   1.34900582E-03, max:   1.34900582E-03, mean:   1.34900582E-03, }
...

 Integrated electronic density in atomic spheres:
 ------------------------------------------------
 Atom  Sphere_radius  Integrated_density
    1        2.00000          0.61741077
    2        2.00000          2.36837684
================================================================================

 ----iterations are completed or convergence reached----

 Mean square residual over all n,k,spin=   23.819E-11; max=  14.572E-09
 reduced coordinates (array xred) for    2 atoms
       0.000000000000      0.000000000000      0.000000000000
       0.250000000000      0.250000000000      0.250000000000
 rms dE/dt=  4.4177E-03; max dE/dt=  6.6809E-03; dE/dt below (all hartree)
    1       0.002637623449      0.002637623449     -0.006681411755
    2      -0.002637130644     -0.002637130644      0.006680886491

 cartesian coordinates (angstrom) at end:
    1      0.00000000000000     0.00000000000000     0.00000000000000
    2      1.50082500000000     1.50082500000000     1.51457500000000

 cartesian forces (hartree/bohr) at end:
    1      0.00059437349213     0.00059437349213    -0.00105510994416
    2     -0.00059437349213    -0.00059437349213     0.00105510994416
 frms,max,avg= 7.7884887E-04 1.0551099E-03   2.336E-08  2.336E-08 -6.641E-08 h/b

 cartesian forces (eV/Angstrom) at end:
    1      0.03056391127212     0.03056391127212    -0.05425593022343
    2     -0.03056391127212    -0.03056391127212     0.05425593022343
 frms,max,avg= 4.0050016E-02 5.4255930E-02   1.201E-06  1.201E-06 -3.415E-06 e/A
 length scales= 11.448527830861 11.448527830861 11.240657956244 bohr
              =  6.058300000000  6.058300000000  5.948300000000 angstroms
 prteigrs : about to open file tseto_DS1_EIG
 Fermi (or HOMO) energy (hartree) =  -0.06199   Average Vxc (hartree)=  -0.33584
 Eigenvalues (hartree) for nkpt=  72  k points:
 kpt#   1, nband=  5, wtk=  0.01563, kpt=  0.0000 -0.1250  0.0000 (reduced coord)
  -0.46654   -0.11981   -0.06466   -0.06199   -0.00078
 prteigrs : prtvol=0 or 1, do not print more k-points.


--- !EnergyTerms
iteration_state     : {dtset: 1, }
comment             : Components of total free energy in Hartree
kinetic             :  2.76172442804239E+00
hartree             :  9.40970062183753E-01
xc                  : -4.90276564479361E+00
Ewald energy        : -7.90632999609993E+00
psp_core            :  1.45385094278755E+00
local_psp           : -3.13261686766991E+00
non_local_psp       :  1.84175205402476E-01
total_energy        : -1.06009918701473E+01
total_energy_eV     : -2.88467659075317E+02
band_energy         : -1.75627285275524E+00
...


 Cartesian components of stress tensor (hartree/bohr^3)
  sigma(1 1)=  3.84582326E-04  sigma(3 2)=  1.39216703E-05
  sigma(2 2)=  3.84582326E-04  sigma(3 1)=  1.39216703E-05
  sigma(3 3)=  4.00328845E-04  sigma(2 1)= -2.64422183E-05

-Cartesian components of stress tensor (GPa)         [Pressure= -1.1469E+01 GPa]
- sigma(1 1)=  1.13148008E+01  sigma(3 2)=  4.09589613E-01
- sigma(2 2)=  1.13148008E+01  sigma(3 1)=  4.09589613E-01
- sigma(3 3)=  1.17780793E+01  sigma(2 1)= -7.77956789E-01

================================================================================
== DATASET  2 ==================================================================
-   mpi_nproc: 1, omp_nthreads: -1 (-1 if OMP is not activated)


--- !DatasetInfo
iteration_state: {dtset: 2, }
dimensions: {natom: 2, nkpt: 40, mband: 8, nsppol: 1, nspinor: 1, nspden: 1, mpw: 149, }
cutoff_energies: {ecut:   4.0, pawecutdg:  -1.0, }
electrons: {nelect:   8.00000000E+00, charge:   0.00000000E+00, occopt:   1.00000000E+00, tsmear:   1.00000000E-02, }
meta: {optdriver: 0, ionmov: 0, optcell: 0, iscf: -2, paral_kgb: 0, }
...

 mkfilename : getden/=0, take file _DEN from output of DATASET   1.

 Exchange-correlation functional for the present dataset will be:
  LDA: new Teter (4/93) with spin-polarized option - ixc=1
 Citation for XC functional:
  S. Goedecker, M. Teter, J. Huetter, PRB 54, 1703 (1996)

 Real(R)+Recip(G) space primitive vectors, cartesian coordinates (Bohr,Bohr^-1):
 R(1)=  0.0000000  5.7242639  5.7242639  G(1)= -0.0873475  0.0873475  0.0873475
 R(2)=  5.7242639  0.0000000  5.7242639  G(2)=  0.0873475 -0.0873475  0.0873475
 R(3)=  5.6203290  5.6203290  0.0000000  G(3)=  0.0889628  0.0889628 -0.0889628
 Unit cell volume ucvol=  3.6832486E+02 bohr^3
 Angles (23,13,12)=  6.00000000E+01  6.00000000E+01  6.00000000E+01 degrees

 getcut: wavevector=  0.0000  0.0000  0.0000  ngfft=  16  16  16
         ecut(hartree)=      4.000   => boxcut(ratio)=   2.19542
--------------------------------------------------------------------------------


================================================================================
 prteigrs : about to open file tseto_DS2_EIG
 Non-SCF case, kpt    1 (  0.50000  0.00000  0.00000), residuals and eigenvalues=
  9.26E-13  1.47E-13  1.87E-13  5.03E-13  2.33E-13  5.08E-13  1.06E-13  6.80E-11
 -4.2818E-01 -2.4861E-01 -8.2933E-02 -8.0451E-02 -8.2501E-03  1.0428E-01
  1.1228E-01  1.9769E-01
  prteigrs : nnsclo,ikpt=   20    1 max resid (incl. the buffer)=  6.80213E-11
 Non-SCF case, kpt    2 (  0.45000  0.00000  0.00000), residuals and eigenvalues=
  8.20E-14  4.32E-13  3.11E-13  7.10E-13  9.04E-13  4.70E-13  5.43E-13  1.03E-09
 -4.3000E-01 -2.4619E-01 -8.2528E-02 -8.0046E-02 -9.1778E-03  1.0487E-01
  1.1284E-01  1.9680E-01
  prteigrs : nnsclo,ikpt=   20    2 max resid (incl. the buffer)=  1.03097E-09
 Non-SCF case, kpt    3 (  0.40000  0.00000  0.00000), residuals and eigenvalues=
  2.11E-13  2.30E-13  1.07E-13  5.15E-13  5.00E-13  7.54E-13  5.12E-13  2.33E-08
 -4.3397E-01 -2.3698E-01 -8.1257E-02 -7.8755E-02 -6.9758E-03  1.0686E-01
  1.1479E-01  1.9277E-01
  prteigrs : nnsclo,ikpt=   20    3 max resid (incl. the buffer)=  2.33066E-08
 Non-SCF case, kpt    4 (  0.35000  0.00000  0.00000), residuals and eigenvalues=
  3.03E-13  1.40E-13  1.53E-13  3.56E-13  7.05E-13  2.57E-13  1.45E-12  5.13E-09
 -4.3958E-01 -2.2260E-01 -7.9173E-02 -7.6682E-02 -3.4100E-03  1.0965E-01
  1.1747E-01  1.8140E-01
  prteigrs : nnsclo,ikpt=   20    4 max resid (incl. the buffer)=  5.12681E-09
 Non-SCF case, kpt    5 (  0.30000  0.00000  0.00000), residuals and eigenvalues=
  3.83E-13  1.81E-13  1.97E-13  7.01E-13  2.25E-13  7.12E-13  3.70E-12  4.71E-09
 -4.4614E-01 -2.0419E-01 -7.6443E-02 -7.3943E-02  9.1673E-04  1.1223E-01
  1.1990E-01  1.6178E-01
  prteigrs : nnsclo,ikpt=   20    5 max resid (incl. the buffer)=  4.71027E-09
 Non-SCF case, kpt    6 (  0.25000  0.00000  0.00000), residuals and eigenvalues=
  2.59E-13  1.37E-13  6.31E-13  3.85E-13  3.19E-13  7.66E-13  5.95E-13  3.26E-11
 -4.5305E-01 -1.8257E-01 -7.3283E-02 -7.0626E-02  5.1361E-03  1.1301E-01
  1.2075E-01  1.3904E-01
  prteigrs : nnsclo,ikpt=   20    6 max resid (incl. the buffer)=  3.25872E-11
 Non-SCF case, kpt    7 (  0.20000  0.00000  0.00000), residuals and eigenvalues=
  4.33E-13  1.76E-13  5.23E-13  9.30E-14  2.51E-13  1.98E-13  3.39E-12  1.25E-11
 -4.5921E-01 -1.5863E-01 -6.9769E-02 -6.7103E-02  7.2541E-03  1.1108E-01
  1.1674E-01  1.1985E-01
  prteigrs : nnsclo,ikpt=   20    7 max resid (incl. the buffer)=  1.25396E-11
 Non-SCF case, kpt    8 (  0.15000  0.00000  0.00000), residuals and eigenvalues=
  4.63E-13  8.67E-13  5.83E-13  2.95E-13  9.04E-13  9.79E-13  3.53E-13  2.02E-13
 -4.6452E-01 -1.3307E-01 -6.6279E-02 -6.3637E-02  3.8769E-03  1.0208E-01
  1.0680E-01  1.1439E-01
 Non-SCF case, kpt    9 (  0.10000  0.00000  0.00000), residuals and eigenvalues=
  4.87E-14  5.52E-13  4.78E-13  4.58E-14  2.63E-13  8.94E-13  8.34E-13  5.99E-12
 -4.6814E-01 -1.0648E-01 -6.3244E-02 -6.0568E-02 -7.7335E-03  9.5175E-02
  1.0189E-01  1.0943E-01
  prteigrs : nnsclo,ikpt=   20    9 max resid (incl. the buffer)=  5.99126E-12
 Non-SCF case, kpt   10 (  0.05000  0.00000  0.00000), residuals and eigenvalues=
  2.24E-13  2.42E-13  6.29E-14  4.36E-13  1.34E-13  8.83E-13  6.81E-13  7.76E-13
 -4.6995E-01 -7.9794E-02 -6.1069E-02 -5.8476E-02 -2.6448E-02  9.4405E-02
  9.8589E-02  1.0592E-01
 Non-SCF case, kpt   11 (  0.00000  0.00000  0.00000), residuals and eigenvalues=
  3.93E-13  1.88E-13  3.48E-14  6.34E-14  1.12E-13  9.30E-14  6.13E-13  1.03E-12
 -4.7042E-01 -6.0509E-02 -5.9973E-02 -5.7739E-02 -4.3394E-02  9.4648E-02
  9.7755E-02  1.0481E-01
  prteigrs : nnsclo,ikpt=   20   11 max resid (incl. the buffer)=  1.02948E-12
 Non-SCF case, kpt   12 (  0.02083  0.04167  0.06250), residuals and eigenvalues=
  2.62E-13  1.96E-13  2.96E-13  4.01E-13  3.12E-14  1.62E-13  3.65E-13  1.05E-12
 -4.6954E-01 -7.9136E-02 -6.2450E-02 -6.0647E-02 -2.3808E-02  9.4174E-02
  9.9880E-02  1.0558E-01
  prteigrs : nnsclo,ikpt=   20   12 max resid (incl. the buffer)=  1.05310E-12
 Non-SCF case, kpt   13 (  0.04167  0.08333  0.12500), residuals and eigenvalues=
  6.70E-13  5.22E-14  3.29E-13  4.26E-13  8.62E-13  8.06E-13  1.72E-12  1.81E-11
 -4.6733E-01 -1.0660E-01 -6.8757E-02 -6.3415E-02 -1.8523E-03  8.6666E-02
  1.0505E-01  1.1522E-01
  prteigrs : nnsclo,ikpt=   20   13 max resid (incl. the buffer)=  1.80943E-11
 Non-SCF case, kpt   14 (  0.06250  0.12500  0.18750), residuals and eigenvalues=
  2.64E-13  3.37E-13  8.73E-13  2.06E-13  7.54E-13  7.44E-13  1.04E-11  1.45E-11
 -4.6263E-01 -1.3300E-01 -7.8411E-02 -6.7536E-02  1.7628E-02  7.7845E-02
  1.1457E-01  1.2999E-01
  prteigrs : nnsclo,ikpt=   20   14 max resid (incl. the buffer)=  1.45010E-11
 Non-SCF case, kpt   15 (  0.08333  0.16667  0.25000), residuals and eigenvalues=
  2.39E-13  2.20E-13  3.72E-13  9.70E-14  4.40E-13  5.34E-13  1.16E-10  4.71E-09
 -4.5651E-01 -1.5771E-01 -9.0566E-02 -7.2941E-02  3.3436E-02  7.0866E-02
  1.2732E-01  1.3842E-01
  prteigrs : nnsclo,ikpt=   20   15 max resid (incl. the buffer)=  4.71347E-09
 Non-SCF case, kpt   16 (  0.10417  0.20833  0.31250), residuals and eigenvalues=
  9.74E-14  3.85E-13  5.26E-13  9.80E-13  2.50E-13  4.20E-13  7.07E-10  9.04E-10
 -4.4873E-01 -1.8018E-01 -1.0409E-01 -7.9524E-02  4.5505E-02  6.6942E-02
  1.3302E-01  1.4343E-01
  prteigrs : nnsclo,ikpt=   20   16 max resid (incl. the buffer)=  9.03684E-10
 Non-SCF case, kpt   17 (  0.12500  0.25000  0.37500), residuals and eigenvalues=
  1.86E-13  4.42E-13  6.69E-13  9.90E-13  1.18E-13  7.79E-13  2.68E-10  6.10E-07
 -4.4050E-01 -1.9996E-01 -1.1788E-01 -8.7466E-02  5.3486E-02  6.6267E-02
  1.2494E-01  1.6135E-01
  prteigrs : nnsclo,ikpt=   20   17 max resid (incl. the buffer)=  6.10332E-07
 Non-SCF case, kpt   18 (  0.14583  0.29167  0.43750), residuals and eigenvalues=
  2.54E-13  3.42E-13  3.94E-13  6.07E-13  3.42E-13  2.76E-13  4.53E-11  3.65E-06
 -4.3201E-01 -2.1651E-01 -1.3088E-01 -9.6683E-02  5.8165E-02  6.8982E-02
  1.1976E-01  1.8165E-01
  prteigrs : nnsclo,ikpt=   20   18 max resid (incl. the buffer)=  3.65003E-06
 Non-SCF case, kpt   19 (  0.16667  0.33333  0.50000), residuals and eigenvalues=
  8.91E-14  4.11E-14  5.64E-14  4.00E-13  3.42E-13  2.05E-13  3.33E-13  6.51E-08
 -4.2375E-01 -2.2939E-01 -1.4205E-01 -1.0692E-01  6.1594E-02  7.4635E-02
  1.1817E-01  2.0423E-01
  prteigrs : nnsclo,ikpt=   20   19 max resid (incl. the buffer)=  6.51328E-08
 Non-SCF case, kpt   20 (  0.18750  0.37500  0.56250), residuals and eigenvalues=
  1.89E-13  5.48E-14  9.45E-14  9.04E-14  1.77E-13  2.13E-13  1.98E-13  1.13E-04
 -4.1671E-01 -2.3828E-01 -1.5050E-01 -1.1765E-01  6.5746E-02  8.2654E-02
  1.1976E-01  2.2828E-01
  prteigrs : nnsclo,ikpt=   20   20 max resid (incl. the buffer)=  1.12821E-04
 Non-SCF case, kpt   21 (  0.20833  0.41667  0.62500), residuals and eigenvalues=
  2.99E-13  8.50E-14  3.81E-13  7.98E-14  4.85E-13  1.79E-13  5.88E-13  3.41E-07
 -4.1193E-01 -2.4391E-01 -1.5541E-01 -1.2820E-01  7.1258E-02  9.2004E-02
  1.2395E-01  2.1565E-01
  prteigrs : nnsclo,ikpt=   20   21 max resid (incl. the buffer)=  3.40851E-07
 Non-SCF case, kpt   22 (  0.22917  0.45833  0.68750), residuals and eigenvalues=
  2.06E-13  8.54E-13  6.52E-13  2.80E-13  2.79E-13  5.38E-13  4.43E-12  3.09E-10
 -4.0912E-01 -2.4613E-01 -1.5580E-01 -1.3752E-01  7.8110E-02  1.0259E-01
  1.3076E-01  1.7987E-01
  prteigrs : nnsclo,ikpt=   20   22 max resid (incl. the buffer)=  3.09315E-10
 Non-SCF case, kpt   23 (  0.25000  0.50000  0.75000), residuals and eigenvalues=
  4.39E-14  3.36E-13  7.63E-13  2.64E-13  9.12E-13  1.90E-13  2.43E-13  8.63E-13
 -4.0909E-01 -2.4698E-01 -1.5385E-01 -1.4264E-01  8.3789E-02  1.0998E-01
  1.3546E-01  1.5617E-01
 Non-SCF case, kpt   24 (  0.25735  0.49265  0.75000), residuals and eigenvalues=
  4.95E-14  3.71E-13  7.27E-13  3.46E-13  4.52E-13  1.66E-13  2.94E-13  2.38E-13
 -4.0907E-01 -2.4707E-01 -1.5388E-01 -1.4240E-01  8.2695E-02  1.0980E-01
  1.3609E-01  1.5705E-01
 Non-SCF case, kpt   25 (  0.26471  0.48529  0.75000), residuals and eigenvalues=
  5.62E-14  4.11E-13  6.99E-13  4.62E-13  6.09E-13  1.54E-13  5.56E-13  5.10E-13
 -4.0908E-01 -2.4716E-01 -1.5412E-01 -1.4164E-01  7.9882E-02  1.0941E-01
  1.3800E-01  1.5906E-01
 Non-SCF case, kpt   26 (  0.27206  0.47794  0.75000), residuals and eigenvalues=
  6.39E-14  4.56E-13  7.05E-13  6.16E-13  5.94E-13  1.59E-13  3.00E-13  3.60E-13
 -4.0914E-01 -2.4726E-01 -1.5455E-01 -1.4037E-01  7.5581E-02  1.0918E-01
  1.4084E-01  1.6195E-01
 Non-SCF case, kpt   27 (  0.27941  0.47059  0.75000), residuals and eigenvalues=
  7.26E-14  5.07E-13  7.68E-13  8.17E-13  5.07E-13  1.75E-13  6.86E-13  1.06E-12
 -4.0922E-01 -2.4736E-01 -1.5511E-01 -1.3869E-01  7.0257E-02  1.0912E-01
  1.4435E-01  1.6553E-01
  prteigrs : nnsclo,ikpt=   20   27 max resid (incl. the buffer)=  1.06192E-12
 Non-SCF case, kpt   28 (  0.28676  0.46324  0.75000), residuals and eigenvalues=
  6.92E-13  2.45E-13  4.82E-13  3.59E-13  3.15E-13  9.86E-14  3.50E-12  8.05E-11
 -4.0949E-01 -2.4761E-01 -1.5576E-01 -1.3669E-01  6.4316E-02  1.0903E-01
  1.4821E-01  1.6962E-01
  prteigrs : nnsclo,ikpt=   20   28 max resid (incl. the buffer)=  8.04553E-11
 Non-SCF case, kpt   29 (  0.29412  0.45588  0.75000), residuals and eigenvalues=
  9.62E-14  2.80E-13  5.29E-13  3.46E-13  2.22E-13  3.81E-13  2.04E-11  1.57E-10
 -4.0934E-01 -2.4753E-01 -1.5638E-01 -1.3435E-01  5.8198E-02  1.0916E-01
  1.5268E-01  1.7427E-01
  prteigrs : nnsclo,ikpt=   20   29 max resid (incl. the buffer)=  1.57296E-10
 Non-SCF case, kpt   30 (  0.30147  0.44853  0.75000), residuals and eigenvalues=
  2.51E-13  2.84E-13  2.34E-13  3.01E-13  2.99E-13  1.82E-13  5.09E-11  2.61E-10
 -4.0952E-01 -2.4764E-01 -1.5704E-01 -1.3187E-01  5.2004E-02  1.0906E-01
  1.5753E-01  1.7904E-01
  prteigrs : nnsclo,ikpt=   20   30 max resid (incl. the buffer)=  2.61010E-10
 Non-SCF case, kpt   31 (  0.30882  0.44118  0.75000), residuals and eigenvalues=
  8.50E-13  6.32E-13  6.41E-14  7.56E-13  2.84E-13  4.92E-13  2.54E-10  9.97E-10
 -4.0946E-01 -2.4765E-01 -1.5766E-01 -1.2919E-01  4.5941E-02  1.0902E-01
  1.6265E-01  1.8425E-01
  prteigrs : nnsclo,ikpt=   20   31 max resid (incl. the buffer)=  9.97136E-10
 Non-SCF case, kpt   32 (  0.31618  0.43382  0.75000), residuals and eigenvalues=
  2.04E-13  3.88E-13  6.36E-13  2.20E-13  8.72E-14  5.27E-13  5.27E-11  9.30E-11
 -4.0943E-01 -2.4764E-01 -1.5821E-01 -1.2648E-01  4.0170E-02  1.0889E-01
  1.6802E-01  1.8955E-01
  prteigrs : nnsclo,ikpt=   20   32 max resid (incl. the buffer)=  9.30336E-11
 Non-SCF case, kpt   33 (  0.32353  0.42647  0.75000), residuals and eigenvalues=
  9.45E-14  4.35E-13  5.04E-14  3.61E-13  7.80E-13  2.78E-13  1.41E-10  6.34E-09
 -4.0939E-01 -2.4765E-01 -1.5871E-01 -1.2380E-01  3.4709E-02  1.0878E-01
  1.7361E-01  1.9486E-01
  prteigrs : nnsclo,ikpt=   20   33 max resid (incl. the buffer)=  6.34377E-09
 Non-SCF case, kpt   34 (  0.33088  0.41912  0.75000), residuals and eigenvalues=
  2.38E-13  9.00E-13  1.36E-13  5.37E-13  7.56E-14  1.57E-13  1.06E-09  1.25E-07
 -4.0946E-01 -2.4770E-01 -1.5918E-01 -1.2124E-01  2.9716E-02  1.0861E-01
  1.7933E-01  1.9986E-01
  prteigrs : nnsclo,ikpt=   20   34 max resid (incl. the buffer)=  1.24518E-07
 Non-SCF case, kpt   35 (  0.33824  0.41176  0.75000), residuals and eigenvalues=
  1.33E-13  1.64E-13  8.35E-14  3.06E-13  7.66E-13  1.95E-13  1.80E-08  6.52E-08
 -4.0958E-01 -2.4781E-01 -1.5960E-01 -1.1887E-01  2.5235E-02  1.0842E-01
  1.8509E-01  2.0464E-01
  prteigrs : nnsclo,ikpt=   20   35 max resid (incl. the buffer)=  6.52443E-08
 Non-SCF case, kpt   36 (  0.34559  0.40441  0.75000), residuals and eigenvalues=
  1.25E-13  1.28E-13  7.49E-14  3.89E-13  2.85E-13  1.97E-13  6.12E-09  4.60E-07
 -4.0960E-01 -2.4785E-01 -1.5993E-01 -1.1673E-01  2.1399E-02  1.0832E-01
  1.9104E-01  2.0909E-01
  prteigrs : nnsclo,ikpt=   20   36 max resid (incl. the buffer)=  4.59690E-07
 Non-SCF case, kpt   37 (  0.35294  0.39706  0.75000), residuals and eigenvalues=
  9.01E-13  1.02E-13  8.94E-13  2.71E-13  1.83E-13  2.53E-13  3.59E-08  2.68E-07
 -4.0967E-01 -2.4793E-01 -1.6020E-01 -1.1498E-01  1.8291E-02  1.0818E-01
  1.9696E-01  2.1297E-01
  prteigrs : nnsclo,ikpt=   20   37 max resid (incl. the buffer)=  2.68026E-07
 Non-SCF case, kpt   38 (  0.36029  0.38971  0.75000), residuals and eigenvalues=
  3.72E-13  1.95E-13  1.34E-13  4.20E-13  8.51E-13  2.62E-13  5.34E-06  2.27E-04
 -4.0984E-01 -2.4806E-01 -1.6043E-01 -1.1365E-01  1.5978E-02  1.0804E-01
  2.0290E-01  2.1688E-01
  prteigrs : nnsclo,ikpt=   20   38 max resid (incl. the buffer)=  2.26823E-04
 Non-SCF case, kpt   39 (  0.36765  0.38235  0.75000), residuals and eigenvalues=
  2.61E-13  9.58E-14  3.75E-13  2.63E-13  7.77E-13  5.58E-13  6.80E-05  1.25E-04
 -4.0987E-01 -2.4809E-01 -1.6055E-01 -1.1283E-01  1.4573E-02  1.0798E-01
  2.0904E-01  2.1785E-01
  prteigrs : nnsclo,ikpt=   20   39 max resid (incl. the buffer)=  1.24748E-04
 Non-SCF case, kpt   40 (  0.37500  0.37500  0.75000), residuals and eigenvalues=
  2.53E-13  7.02E-14  2.32E-13  2.68E-13  5.23E-13  3.86E-13  6.30E-09  1.31E-04
 -4.0988E-01 -2.4811E-01 -1.6059E-01 -1.1255E-01  1.4099E-02  1.0796E-01
  2.1412E-01  2.1501E-01
  prteigrs : nnsclo,ikpt=   20   40 max resid (incl. the buffer)=  1.31421E-04


--- !ResultsGS
iteration_state: {dtset: 2, }
comment   : Summary of ground state results
lattice_vectors:
- [  0.0000000,   5.7242639,   5.7242639, ]
- [  5.7242639,   0.0000000,   5.7242639, ]
- [  5.6203290,   5.6203290,   0.0000000, ]
lattice_lengths: [   8.09533,    8.09533,    7.94835, ]
lattice_angles: [ 60.000,  60.000,  60.000, ] # degrees, (23, 13, 12)
lattice_volume:   3.6832486E+02
convergence: {deltae:  0.000E+00, res2:  0.000E+00, residm:  9.897E-13, diffor:  0.000E+00, }
etotal    :  -1.06009919E+01
entropy   :   0.00000000E+00
fermie    :  -6.19884441E-02
cartesian_stress_tensor: null
pressure_GPa: null
xred      :
- [  0.0000E+00,   0.0000E+00,   0.0000E+00, In]
- [  2.5000E-01,   2.5000E-01,   2.5000E-01, As]
cartesian_forces: null
force_length_stats: {min: null, max: null, mean: null, }
...

 Integrated electronic density in atomic spheres:
 ------------------------------------------------
 Atom  Sphere_radius  Integrated_density
    1        2.00000          0.61741077
    2        2.00000          2.36837684
================================================================================

 ----iterations are completed or convergence reached----

 Mean square residual over all n,k,spin=   36.804E-14; max=  98.969E-14
 reduced coordinates (array xred) for    2 atoms
       0.000000000000      0.000000000000      0.000000000000
       0.250000000000      0.250000000000      0.250000000000

 cartesian coordinates (angstrom) at end:
    1      0.00000000000000     0.00000000000000     0.00000000000000
    2      1.50082500000000     1.50082500000000     1.51457500000000
 length scales= 11.448527830861 11.448527830861 11.240657956244 bohr
              =  6.058300000000  6.058300000000  5.948300000000 angstroms
 prteigrs : about to open file tseto_DS2_EIG
 Eigenvalues (   eV  ) for nkpt=  40  k points:
 kpt#   1, nband=  8, wtk=  1.00000, kpt=  0.5000  0.0000  0.0000 (reduced coord)
 -11.65141   -6.76507   -2.25673   -2.18920   -0.22450    2.83772    3.05516    5.37949
 kpt#   2, nband=  8, wtk=  1.00000, kpt=  0.4500  0.0000  0.0000 (reduced coord)
 -11.70092   -6.69912   -2.24571   -2.17817   -0.24974    2.85362    3.07045    5.35518
 kpt#   3, nband=  8, wtk=  1.00000, kpt=  0.4000  0.0000  0.0000 (reduced coord)
 -11.80899   -6.44858   -2.21112   -2.14302   -0.18982    2.90776    3.12347    5.24556
 kpt#   4, nband=  8, wtk=  1.00000, kpt=  0.3500  0.0000  0.0000 (reduced coord)
 -11.96149   -6.05722   -2.15440   -2.08662   -0.09279    2.98369    3.19641    4.93611
 kpt#   5, nband=  8, wtk=  1.00000, kpt=  0.3000  0.0000  0.0000 (reduced coord)
 -12.14022   -5.55625   -2.08013   -2.01208    0.02495    3.05382    3.26268    4.40238
 kpt#   6, nband=  8, wtk=  1.00000, kpt=  0.2500  0.0000  0.0000 (reduced coord)
 -12.32811   -4.96786   -1.99412   -1.92184    0.13976    3.07523    3.28578    3.78351
 kpt#   7, nband=  8, wtk=  1.00000, kpt=  0.2000  0.0000  0.0000 (reduced coord)
 -12.49575   -4.31641   -1.89851   -1.82595    0.19739    3.02274    3.17666    3.26139
 kpt#   8, nband=  8, wtk=  1.00000, kpt=  0.1500  0.0000  0.0000 (reduced coord)
 -12.64022   -3.62107   -1.80355   -1.73164    0.10550    2.77765    2.90628    3.11266
 kpt#   9, nband=  8, wtk=  1.00000, kpt=  0.1000  0.0000  0.0000 (reduced coord)
 -12.73882   -2.89744   -1.72095   -1.64813   -0.21044    2.58983    2.77263    2.97787
 kpt#  10, nband=  8, wtk=  1.00000, kpt=  0.0500  0.0000  0.0000 (reduced coord)
 -12.78809   -2.17131   -1.66178   -1.59121   -0.71969    2.56888    2.68274    2.88215
 kpt#  11, nband=  8, wtk=  1.00000, kpt=  0.0000  0.0000  0.0000 (reduced coord)
 -12.80066   -1.64653   -1.63196   -1.57117   -1.18080    2.57551    2.66006    2.85204
 kpt#  12, nband=  8, wtk=  1.00000, kpt=  0.0208  0.0417  0.0625 (reduced coord)
 -12.77688   -2.15339   -1.69935   -1.65029   -0.64784    2.56261    2.71788    2.87297
 kpt#  13, nband=  8, wtk=  1.00000, kpt=  0.0417  0.0833  0.1250 (reduced coord)
 -12.71657   -2.90061   -1.87097   -1.72561   -0.05040    2.35832    2.85856    3.13538
 kpt#  14, nband=  8, wtk=  1.00000, kpt=  0.0625  0.1250  0.1875 (reduced coord)
 -12.58867   -3.61916   -2.13368   -1.83776    0.47969    2.11826    3.11769    3.53733
 kpt#  15, nband=  8, wtk=  1.00000, kpt=  0.0833  0.1667  0.2500 (reduced coord)
 -12.42234   -4.29155   -2.46441   -1.98481    0.90983    1.92837    3.46443    3.76660
 kpt#  16, nband=  8, wtk=  1.00000, kpt=  0.1042  0.2083  0.3125 (reduced coord)
 -12.21043   -4.90292   -2.83237   -2.16395    1.23825    1.82158    3.61978    3.90288
 kpt#  17, nband=  8, wtk=  1.00000, kpt=  0.1250  0.2500  0.3750 (reduced coord)
 -11.98656   -5.44126   -3.20773   -2.38007    1.45543    1.80322    3.39985    4.39052
 kpt#  18, nband=  8, wtk=  1.00000, kpt=  0.1458  0.2917  0.4375 (reduced coord)
 -11.75570   -5.89150   -3.56153   -2.63089    1.58275    1.87711    3.25883    4.94305
 kpt#  19, nband=  8, wtk=  1.00000, kpt=  0.1667  0.3333  0.5000 (reduced coord)
 -11.53096   -6.24197   -3.86543   -2.90936    1.67607    2.03092    3.21569    5.55725
 kpt#  20, nband=  8, wtk=  1.00000, kpt=  0.1875  0.3750  0.5625 (reduced coord)
 -11.33920   -6.48387   -4.09542   -3.20134    1.78905    2.24914    3.25896    6.21181
 kpt#  21, nband=  8, wtk=  1.00000, kpt=  0.2083  0.4167  0.6250 (reduced coord)
 -11.20916   -6.63726   -4.22894   -3.48839    1.93903    2.50354    3.37295    5.86808
 kpt#  22, nband=  8, wtk=  1.00000, kpt=  0.2292  0.4583  0.6875 (reduced coord)
 -11.13284   -6.69744   -4.23940   -3.74218    2.12548    2.79172    3.55827    4.89438
 kpt#  23, nband=  8, wtk=  1.00000, kpt=  0.2500  0.5000  0.7500 (reduced coord)
 -11.13188   -6.72070   -4.18636   -3.88149    2.28001    2.99264    3.68604    4.24962
 kpt#  24, nband=  8, wtk=  1.00000, kpt=  0.2574  0.4926  0.7500 (reduced coord)
 -11.13123   -6.72323   -4.18736   -3.87494    2.25024    2.98771    3.70322    4.27348
 kpt#  25, nband=  8, wtk=  1.00000, kpt=  0.2647  0.4853  0.7500 (reduced coord)
 -11.13172   -6.72570   -4.19384   -3.85411    2.17371    2.97710    3.75511    4.32822
 kpt#  26, nband=  8, wtk=  1.00000, kpt=  0.2721  0.4779  0.7500 (reduced coord)
 -11.13314   -6.72824   -4.20542   -3.81975    2.05668    2.97091    3.83242    4.40700
 kpt#  27, nband=  8, wtk=  1.00000, kpt=  0.2794  0.4706  0.7500 (reduced coord)
 -11.13532   -6.73092   -4.22065   -3.77384    1.91179    2.96937    3.92800    4.50435
 kpt#  28, nband=  8, wtk=  1.00000, kpt=  0.2868  0.4632  0.7500 (reduced coord)
 -11.14268   -6.73780   -4.23857   -3.71959    1.75013    2.96681    4.03309    4.61550
 kpt#  29, nband=  8, wtk=  1.00000, kpt=  0.2941  0.4559  0.7500 (reduced coord)
 -11.13859   -6.73565   -4.25534   -3.65582    1.58364    2.97034    4.15475    4.74219
 kpt#  30, nband=  8, wtk=  1.00000, kpt=  0.3015  0.4485  0.7500 (reduced coord)
 -11.14362   -6.73857   -4.27339   -3.58846    1.41510    2.96767    4.28667    4.87179
 kpt#  31, nband=  8, wtk=  1.00000, kpt=  0.3088  0.4412  0.7500 (reduced coord)
 -11.14192   -6.73897   -4.29027   -3.51531    1.25013    2.96651    4.42600    5.01362
 kpt#  32, nband=  8, wtk=  1.00000, kpt=  0.3162  0.4338  0.7500 (reduced coord)
 -11.14119   -6.73866   -4.30517   -3.44163    1.09309    2.96294    4.57195    5.15803
 kpt#  33, nband=  8, wtk=  1.00000, kpt=  0.3235  0.4265  0.7500 (reduced coord)
 -11.14005   -6.73894   -4.31879   -3.36883    0.94447    2.96014    4.72409    5.30233
 kpt#  34, nband=  8, wtk=  1.00000, kpt=  0.3309  0.4191  0.7500 (reduced coord)
 -11.14205   -6.74019   -4.33150   -3.29911    0.80861    2.95550    4.87993    5.43840
 kpt#  35, nband=  8, wtk=  1.00000, kpt=  0.3382  0.4118  0.7500 (reduced coord)
 -11.14515   -6.74334   -4.34283   -3.23458    0.68667    2.95039    5.03659    5.56858
 kpt#  36, nband=  8, wtk=  1.00000, kpt=  0.3456  0.4044  0.7500 (reduced coord)
 -11.14568   -6.74440   -4.35196   -3.17648    0.58230    2.94742    5.19858    5.68957
 kpt#  37, nband=  8, wtk=  1.00000, kpt=  0.3529  0.3971  0.7500 (reduced coord)
 -11.14780   -6.74662   -4.35933   -3.12868    0.49774    2.94367    5.35949    5.79527
 kpt#  38, nband=  8, wtk=  1.00000, kpt=  0.3603  0.3897  0.7500 (reduced coord)
 -11.15222   -6.74995   -4.36561   -3.09270    0.43479    2.94003    5.52124    5.90164
 kpt#  39, nband=  8, wtk=  1.00000, kpt=  0.3676  0.3824  0.7500 (reduced coord)
 -11.15318   -6.75095   -4.36881   -3.07025    0.39655    2.93830    5.68827    5.92808
 kpt#  40, nband=  8, wtk=  1.00000, kpt=  0.3750  0.3750  0.7500 (reduced coord)
 -11.15350   -6.75129   -4.36988   -3.06263    0.38366    2.93772    5.82648    5.85071

== END DATASET(S) ==============================================================
================================================================================
  
 -outvars: echo values of variables after computation  --------
            acell      1.1448527831E+01  1.1448527831E+01  1.1240657956E+01 Bohr
              amu      1.14820000E+02  7.49215900E+01
           diemac      1.20000000E+01
             ecut      4.00000000E+00 Hartree
           enunit1          0
           enunit2          1
           etotal1    -1.0600991870E+01
            fcart1     5.9437349213E-04  5.9437349213E-04 -1.0551099442E-03
                      -5.9437349213E-04 -5.9437349213E-04  1.0551099442E-03
-          fftalg         112
           getden1          0
           getden2         -1
             iscf1          7
             iscf2         -2
           istwfk2       1    0    0    0    0    0    0    0    0    0
                         1    0    0    0    0    0    0    0    0    0
                         0    0    0    0    0    0    0    0    0    0
                         0    0    0    0    0    0    0    0    0    0
                       outvar_i_n : Printing only first  50 k-points.
           jdtset        1    2
              kpt1     0.00000000E+00 -1.25000000E-01  0.00000000E+00
                       0.00000000E+00 -3.75000000E-01  0.00000000E+00
                       1.25000000E-01 -2.50000000E-01  0.00000000E+00
                       0.00000000E+00 -2.50000000E-01  1.25000000E-01
                       1.25000000E-01 -1.25000000E-01  1.25000000E-01
                       0.00000000E+00 -1.25000000E-01  2.50000000E-01
                       1.25000000E-01  5.00000000E-01  0.00000000E+00
                       2.50000000E-01 -3.75000000E-01  0.00000000E+00
                       0.00000000E+00  5.00000000E-01  1.25000000E-01
                       1.25000000E-01 -3.75000000E-01  1.25000000E-01
                       2.50000000E-01 -2.50000000E-01  1.25000000E-01
                       3.75000000E-01 -1.25000000E-01  1.25000000E-01
                       0.00000000E+00 -3.75000000E-01  2.50000000E-01
                       1.25000000E-01 -2.50000000E-01  2.50000000E-01
                       2.50000000E-01 -1.25000000E-01  2.50000000E-01
                       0.00000000E+00 -2.50000000E-01  3.75000000E-01
                       1.25000000E-01 -1.25000000E-01  3.75000000E-01
                       0.00000000E+00 -1.25000000E-01  5.00000000E-01
                       1.25000000E-01  2.50000000E-01  0.00000000E+00
                       2.50000000E-01  3.75000000E-01  0.00000000E+00
                       3.75000000E-01  5.00000000E-01  0.00000000E+00
                       0.00000000E+00  2.50000000E-01  1.25000000E-01
                       1.25000000E-01  3.75000000E-01  1.25000000E-01
                       2.50000000E-01  5.00000000E-01  1.25000000E-01
                       3.75000000E-01 -3.75000000E-01  1.25000000E-01
                       5.00000000E-01 -2.50000000E-01  1.25000000E-01
                      -3.75000000E-01 -1.25000000E-01  1.25000000E-01
                       0.00000000E+00  3.75000000E-01  2.50000000E-01
                       1.25000000E-01  5.00000000E-01  2.50000000E-01
                       2.50000000E-01 -3.75000000E-01  2.50000000E-01
                       3.75000000E-01 -2.50000000E-01  2.50000000E-01
                       5.00000000E-01 -1.25000000E-01  2.50000000E-01
                       0.00000000E+00  5.00000000E-01  3.75000000E-01
                       1.25000000E-01 -3.75000000E-01  3.75000000E-01
                       2.50000000E-01 -2.50000000E-01  3.75000000E-01
                       3.75000000E-01 -1.25000000E-01  3.75000000E-01
                       0.00000000E+00 -3.75000000E-01  5.00000000E-01
                       1.25000000E-01 -2.50000000E-01  5.00000000E-01
                       0.00000000E+00 -2.50000000E-01 -3.75000000E-01
                       0.00000000E+00 -1.25000000E-01 -2.50000000E-01
                       0.00000000E+00  0.00000000E+00  1.25000000E-01
                       1.25000000E-01  1.25000000E-01  1.25000000E-01
                       2.50000000E-01  2.50000000E-01  1.25000000E-01
                       3.75000000E-01  3.75000000E-01  1.25000000E-01
                       5.00000000E-01  5.00000000E-01  1.25000000E-01
                      -3.75000000E-01 -3.75000000E-01  1.25000000E-01
                      -2.50000000E-01 -2.50000000E-01  1.25000000E-01
                      -1.25000000E-01 -1.25000000E-01  1.25000000E-01
                       1.25000000E-01  2.50000000E-01  2.50000000E-01
                       2.50000000E-01  3.75000000E-01  2.50000000E-01
              kpt2     5.00000000E-01  0.00000000E+00  0.00000000E+00
                       4.50000000E-01  0.00000000E+00  0.00000000E+00
                       4.00000000E-01  0.00000000E+00  0.00000000E+00
                       3.50000000E-01  0.00000000E+00  0.00000000E+00
                       3.00000000E-01  0.00000000E+00  0.00000000E+00
                       2.50000000E-01  0.00000000E+00  0.00000000E+00
                       2.00000000E-01  0.00000000E+00  0.00000000E+00
                       1.50000000E-01  0.00000000E+00  0.00000000E+00
                       1.00000000E-01  0.00000000E+00  0.00000000E+00
                       5.00000000E-02  0.00000000E+00  0.00000000E+00
                       0.00000000E+00  0.00000000E+00  0.00000000E+00
                       2.08333333E-02  4.16666667E-02  6.25000000E-02
                       4.16666667E-02  8.33333333E-02  1.25000000E-01
                       6.25000000E-02  1.25000000E-01  1.87500000E-01
                       8.33333333E-02  1.66666667E-01  2.50000000E-01
                       1.04166667E-01  2.08333333E-01  3.12500000E-01
                       1.25000000E-01  2.50000000E-01  3.75000000E-01
                       1.45833333E-01  2.91666667E-01  4.37500000E-01
                       1.66666667E-01  3.33333333E-01  5.00000000E-01
                       1.87500000E-01  3.75000000E-01  5.62500000E-01
                       2.08333333E-01  4.16666667E-01  6.25000000E-01
                       2.29166667E-01  4.58333333E-01  6.87500000E-01
                       2.50000000E-01  5.00000000E-01  7.50000000E-01
                       2.57352941E-01  4.92647059E-01  7.50000000E-01
                       2.64705882E-01  4.85294118E-01  7.50000000E-01
                       2.72058824E-01  4.77941176E-01  7.50000000E-01
                       2.79411765E-01  4.70588235E-01  7.50000000E-01
                       2.86764706E-01  4.63235294E-01  7.50000000E-01
                       2.94117647E-01  4.55882353E-01  7.50000000E-01
                       3.01470588E-01  4.48529412E-01  7.50000000E-01
                       3.08823529E-01  4.41176471E-01  7.50000000E-01
                       3.16176471E-01  4.33823529E-01  7.50000000E-01
                       3.23529412E-01  4.26470588E-01  7.50000000E-01
                       3.30882353E-01  4.19117647E-01  7.50000000E-01
                       3.38235294E-01  4.11764706E-01  7.50000000E-01
                       3.45588235E-01  4.04411765E-01  7.50000000E-01
                       3.52941176E-01  3.97058824E-01  7.50000000E-01
                       3.60294118E-01  3.89705882E-01  7.50000000E-01
                       3.67647059E-01  3.82352941E-01  7.50000000E-01
                       3.75000000E-01  3.75000000E-01  7.50000000E-01
                       outvar_i_n : Printing only first  50 k-points.
           kptopt1          1
           kptopt2         -3
         kptrlatt        4    4   -4     -4    4    4      4   -4    4
          kptrlen1     4.53802760E+01
          kptrlen2     3.00000000E+01
P           mkmem1         72
P           mkmem2         40
            natom           2
            nband1          5
            nband2          8
           nbdbuf1          0
           nbdbuf2          2
           ndtset           2
            ngfft          16      16      16
             nkpt1         72
             nkpt2         40
            nstep          20
             nsym           2
           ntypat           2
              occ      2.000000  2.000000  2.000000  2.000000  0.000000
            rprim      0.0000000000E+00  5.0000000000E-01  5.0000000000E-01
                       5.0000000000E-01  0.0000000000E+00  5.0000000000E-01
                       5.0000000000E-01  5.0000000000E-01  0.0000000000E+00
           shiftk1    -5.00000000E-01  5.00000000E-01  5.00000000E-01
           shiftk2     5.00000000E-01  5.00000000E-01  5.00000000E-01
          spgroup           8
           strten1     3.8458232579E-04  3.8458232579E-04  4.0032884468E-04
                       1.3921670312E-05  1.3921670312E-05 -2.6442218258E-05
           symrel      1  0  0   0  1  0   0  0  1       0  1  0   1  0  0   0  0  1
           toldfe1     1.00000000E-06 Hartree
           toldfe2     0.00000000E+00 Hartree
           tolwfr1     0.00000000E+00
           tolwfr2     1.00000000E-12
            typat      1  2
              wtk1       0.01563    0.01563    0.01563    0.01563    0.01563    0.01563
                         0.01563    0.01563    0.01563    0.01563    0.01563    0.01563
                         0.01563    0.01563    0.01563    0.01563    0.01563    0.01563
                         0.01563    0.01563    0.01563    0.01563    0.01563    0.01563
                         0.01563    0.01563    0.01563    0.01563    0.01563    0.01563
                         0.01563    0.01563    0.01563    0.01563    0.01563    0.01563
                         0.01563    0.01563    0.01563    0.01563    0.00781    0.00781
                         0.00781    0.00781    0.00781    0.00781    0.00781    0.00781
                         0.01563    0.01563
              wtk2       1.00000    1.00000    1.00000    1.00000    1.00000    1.00000
                         1.00000    1.00000    1.00000    1.00000    1.00000    1.00000
                         1.00000    1.00000    1.00000    1.00000    1.00000    1.00000
                         1.00000    1.00000    1.00000    1.00000    1.00000    1.00000
                         1.00000    1.00000    1.00000    1.00000    1.00000    1.00000
                         1.00000    1.00000    1.00000    1.00000    1.00000    1.00000
                         1.00000    1.00000    1.00000    1.00000
                       outvars : Printing only first  50 k-points.
           xangst      0.0000000000E+00  0.0000000000E+00  0.0000000000E+00
                       1.5008250000E+00  1.5008250000E+00  1.5145750000E+00
            xcart      0.0000000000E+00  0.0000000000E+00  0.0000000000E+00
                       2.8361482234E+00  2.8361482234E+00  2.8621319577E+00
             xred      0.0000000000E+00  0.0000000000E+00  0.0000000000E+00
                       2.5000000000E-01  2.5000000000E-01  2.5000000000E-01
            znucl       49.00000   33.00000

================================================================================


- Timing analysis has been suppressed with timopt=0



================================================================================

 Suggested references for the acknowledgment of ABINIT usage.

 The users of ABINIT have little formal obligations with respect to the ABINIT group
 (those specified in the GNU General Public License, http://www.gnu.org/copyleft/gpl.txt).
 However, it is common practice in the scientific literature,
 to acknowledge the efforts of people that have made the research possible.
 In this spirit, please find below suggested citations of work written by ABINIT developers,
 corresponding to implementations inside of ABINIT that you have used in the present run.
 Note also that it will be of great value to readers of publications presenting these results,
 to read papers enabling them to understand the theoretical formalism and details
 of the ABINIT implementation.
 For information on why they are suggested, see also https://docs.abinit.org/theory/acknowledgments.
-
- [1] The Abinit project: Impact, environment and recent developments.
- Computer Phys. Comm. 248, 107042 (2020).
- X.Gonze, B. Amadon, G. Antonius, F.Arnardi, L.Baguet, J.-M.Beuken,
- J.Bieder, F.Bottin, J.Bouchet, E.Bousquet, N.Brouwer, F.Bruneval,
- G.Brunin, T.Cavignac, J.-B. Charraud, Wei Chen, M.Cote, S.Cottenier,
- J.Denier, G.Geneste, Ph.Ghosez, M.Giantomassi, Y.Gillet, O.Gingras,
- D.R.Hamann, G.Hautier, Xu He, N.Helbig, N.Holzwarth, Y.Jia, F.Jollet,
- W.Lafargue-Dit-Hauret, K.Lejaeghere, M.A.L.Marques, A.Martin, C.Martins,
- H.P.C. Miranda, F.Naccarato, K. Persson, G.Petretto, V.Planes, Y.Pouillon,
- S.Prokhorenko, F.Ricci, G.-M.Rignanese, A.H.Romero, M.M.Schmitt, M.Torrent,
- M.J.van Setten, B.Van Troeye, M.J.Verstraete, G.Zerah and J.W.Zwanzig
- Comment: the fifth generic paper describing the ABINIT project.
- Note that a version of this paper, that is not formatted for Computer Phys. Comm. 
- is available at https://www.abinit.org/sites/default/files/ABINIT20.pdf .
- The licence allows the authors to put it on the Web.
- DOI and bibtex: see https://docs.abinit.org/theory/bibliography/#gonze2020
-
- [2] ABINIT: Overview, and focus on selected capabilities
- J. Chem. Phys. 152, 124102 (2020).
- A. Romero, D.C. Allan, B. Amadon, G. Antonius, T. Applencourt, L.Baguet,
- J.Bieder, F.Bottin, J.Bouchet, E.Bousquet, F.Bruneval,
- G.Brunin, D.Caliste, M.Cote,
- J.Denier, C. Dreyer, Ph.Ghosez, M.Giantomassi, Y.Gillet, O.Gingras,
- D.R.Hamann, G.Hautier, F.Jollet, G. Jomard,
- A.Martin, 
- H.P.C. Miranda, F.Naccarato, G.Petretto, N.A. Pike, V.Planes,
- S.Prokhorenko, T. Rangel, F.Ricci, G.-M.Rignanese, M.Royo, M.Stengel, M.Torrent,
- M.J.van Setten, B.Van Troeye, M.J.Verstraete, J.Wiktor, J.W.Zwanziger, and X.Gonze.
- Comment: a global overview of ABINIT, with focus on selected capabilities .
- Note that a version of this paper, that is not formatted for J. Chem. Phys 
- is available at https://www.abinit.org/sites/default/files/ABINIT20_JPC.pdf .
- The licence allows the authors to put it on the Web.
- DOI and bibtex: see https://docs.abinit.org/theory/bibliography/#romero2020
-
- [3] Recent developments in the ABINIT software package.
- Computer Phys. Comm. 205, 106 (2016).
- X.Gonze, F.Jollet, F.Abreu Araujo, D.Adams, B.Amadon, T.Applencourt,
- C.Audouze, J.-M.Beuken, J.Bieder, A.Bokhanchuk, E.Bousquet, F.Bruneval
- D.Caliste, M.Cote, F.Dahm, F.Da Pieve, M.Delaveau, M.Di Gennaro,
- B.Dorado, C.Espejo, G.Geneste, L.Genovese, A.Gerossier, M.Giantomassi,
- Y.Gillet, D.R.Hamann, L.He, G.Jomard, J.Laflamme Janssen, S.Le Roux,
- A.Levitt, A.Lherbier, F.Liu, I.Lukacevic, A.Martin, C.Martins,
- M.J.T.Oliveira, S.Ponce, Y.Pouillon, T.Rangel, G.-M.Rignanese,
- A.H.Romero, B.Rousseau, O.Rubel, A.A.Shukri, M.Stankovski, M.Torrent,
- M.J.Van Setten, B.Van Troeye, M.J.Verstraete, D.Waroquier, J.Wiktor,
- B.Xu, A.Zhou, J.W.Zwanziger.
- Comment: the fourth generic paper describing the ABINIT project.
- Note that a version of this paper, that is not formatted for Computer Phys. Comm. 
- is available at https://www.abinit.org/sites/default/files/ABINIT16.pdf .
- The licence allows the authors to put it on the Web.
- DOI and bibtex: see https://docs.abinit.org/theory/bibliography/#gonze2016
-
- And optionally:
-
- [4] ABINIT: First-principles approach of materials and nanosystem properties.
- Computer Phys. Comm. 180, 2582-2615 (2009).
- X. Gonze, B. Amadon, P.-M. Anglade, J.-M. Beuken, F. Bottin, P. Boulanger, F. Bruneval,
- D. Caliste, R. Caracas, M. Cote, T. Deutsch, L. Genovese, Ph. Ghosez, M. Giantomassi
- S. Goedecker, D.R. Hamann, P. Hermet, F. Jollet, G. Jomard, S. Leroux, M. Mancini, S. Mazevet,
- M.J.T. Oliveira, G. Onida, Y. Pouillon, T. Rangel, G.-M. Rignanese, D. Sangalli, R. Shaltaf,
- M. Torrent, M.J. Verstraete, G. Zerah, J.W. Zwanziger
- Comment: the third generic paper describing the ABINIT project.
- Note that a version of this paper, that is not formatted for Computer Phys. Comm. 
- is available at https://www.abinit.org/sites/default/files/ABINIT_CPC_v10.pdf .
- The licence allows the authors to put it on the Web.
- DOI and bibtex: see https://docs.abinit.org/theory/bibliography/#gonze2009
-
- Proc.   0 individual time (sec): cpu=          9.8  wall=         58.2

================================================================================

 Calculation completed.
.Delivered   1 WARNINGs and   5 COMMENTs to log file.
+Overall time at end (sec) : cpu=          9.8  wall=         58.2
