
.Version 9.6.2 of ABINIT 
.(MPI version, prepared for a x86_64_linux_gnu9.4 computer) 

.Copyright (C) 1998-2021 ABINIT group . 
 ABINIT comes with ABSOLUTELY NO WARRANTY.
 It is free software, and you are welcome to redistribute it
 under certain conditions (GNU General Public License,
 see ~abinit/COPYING or http://www.gnu.org/copyleft/gpl.txt).

 ABINIT is a project of the Universite Catholique de Louvain,
 Corning Inc. and other collaborators, see ~abinit/doc/developers/contributors.txt .
 Please read https://docs.abinit.org/theory/acknowledgments for suggested
 acknowledgments of the ABINIT effort.
 For more information, see https://www.abinit.org .

.Starting date : Wed 19 Oct 2022.
- ( at 21h40 )
  
- input  file    -> InAs.in
- output file    -> test.out
- root for input  files -> testi
- root for output files -> testo


 DATASET    1 : space group Cm (#  8); Bravais mC (1-face-center monocl.)
================================================================================
 Values of the parameters that define the memory need for DATASET  1.
     intxc =       0    ionmov =       0      iscf =       7    lmnmax =       1
     lnmax =       1     mgfft =      16  mpssoang =       2    mqgrid =    3001
     natom =       2  nloc_mem =       1    nspden =       1   nspinor =       1
    nsppol =       1      nsym =       2    n1xccc =    2501    ntypat =       2
    occopt =       1   xclevel =       1
-    mband =           5        mffmem =           1         mkmem =          72
       mpw =         153          nfft =        4096          nkpt =          72
================================================================================
P This job should need less than                       3.007 Mbytes of memory.
  Rough estimation (10% accuracy) of disk space for files :
_ WF disk file :      0.842 Mbytes ; DEN or POT disk file :      0.033 Mbytes.
================================================================================


 DATASET    2 : space group Cm (#  8); Bravais mC (1-face-center monocl.)
================================================================================
 Values of the parameters that define the memory need for DATASET  2.
     intxc =       0    ionmov =       0      iscf =      -2    lmnmax =       1
     lnmax =       1     mgfft =      16  mpssoang =       2    mqgrid =    3001
     natom =       2  nloc_mem =       1    nspden =       1   nspinor =       1
    nsppol =       1      nsym =       2    n1xccc =    2501    ntypat =       2
    occopt =       1   xclevel =       1
-    mband =           8        mffmem =           1         mkmem =          40
       mpw =         153          nfft =        4096          nkpt =          40
================================================================================
P This job should need less than                       2.352 Mbytes of memory.
  Rough estimation (10% accuracy) of disk space for files :
_ WF disk file :      0.749 Mbytes ; DEN or POT disk file :      0.033 Mbytes.
================================================================================

--------------------------------------------------------------------------------
------------- Echo of variables that govern the present computation ------------
--------------------------------------------------------------------------------
-
- outvars: echo of selected default values                                      
-   iomode0 =  0 , fftalg0 =112 , wfoptalg0 =  0
-
- outvars: echo of global parameters not present in the input file              
-  max_nthreads =    0
-
 -outvars: echo values of preprocessed input variables --------
            acell      1.1448527831E+01  1.1448527831E+01  1.1429630570E+01 Bohr
              amu      1.14820000E+02  7.49215900E+01
           diemac      1.20000000E+01
             ecut      4.00000000E+00 Hartree
           enunit1          0
           enunit2          1
-          fftalg         112
           getden1          0
           getden2         -1
             iscf1          7
             iscf2         -2
           istwfk2       1    0    0    0    0    0    0    0    0    0
                         1    0    0    0    0    0    0    0    0    0
                         0    0    0    0    0    0    0    0    0    0
                         0    0    0    0    0    0    0    0    0    0
                       outvar_i_n : Printing only first  50 k-points.
           jdtset        1    2
              kpt1     0.00000000E+00 -1.25000000E-01  0.00000000E+00
                       0.00000000E+00 -3.75000000E-01  0.00000000E+00
                       1.25000000E-01 -2.50000000E-01  0.00000000E+00
                       0.00000000E+00 -2.50000000E-01  1.25000000E-01
                       1.25000000E-01 -1.25000000E-01  1.25000000E-01
                       0.00000000E+00 -1.25000000E-01  2.50000000E-01
                       1.25000000E-01  5.00000000E-01  0.00000000E+00
                       2.50000000E-01 -3.75000000E-01  0.00000000E+00
                       0.00000000E+00  5.00000000E-01  1.25000000E-01
                       1.25000000E-01 -3.75000000E-01  1.25000000E-01
                       2.50000000E-01 -2.50000000E-01  1.25000000E-01
                       3.75000000E-01 -1.25000000E-01  1.25000000E-01
                       0.00000000E+00 -3.75000000E-01  2.50000000E-01
                       1.25000000E-01 -2.50000000E-01  2.50000000E-01
                       2.50000000E-01 -1.25000000E-01  2.50000000E-01
                       0.00000000E+00 -2.50000000E-01  3.75000000E-01
                       1.25000000E-01 -1.25000000E-01  3.75000000E-01
                       0.00000000E+00 -1.25000000E-01  5.00000000E-01
                       1.25000000E-01  2.50000000E-01  0.00000000E+00
                       2.50000000E-01  3.75000000E-01  0.00000000E+00
                       3.75000000E-01  5.00000000E-01  0.00000000E+00
                       0.00000000E+00  2.50000000E-01  1.25000000E-01
                       1.25000000E-01  3.75000000E-01  1.25000000E-01
                       2.50000000E-01  5.00000000E-01  1.25000000E-01
                       3.75000000E-01 -3.75000000E-01  1.25000000E-01
                       5.00000000E-01 -2.50000000E-01  1.25000000E-01
                      -3.75000000E-01 -1.25000000E-01  1.25000000E-01
                       0.00000000E+00  3.75000000E-01  2.50000000E-01
                       1.25000000E-01  5.00000000E-01  2.50000000E-01
                       2.50000000E-01 -3.75000000E-01  2.50000000E-01
                       3.75000000E-01 -2.50000000E-01  2.50000000E-01
                       5.00000000E-01 -1.25000000E-01  2.50000000E-01
                       0.00000000E+00  5.00000000E-01  3.75000000E-01
                       1.25000000E-01 -3.75000000E-01  3.75000000E-01
                       2.50000000E-01 -2.50000000E-01  3.75000000E-01
                       3.75000000E-01 -1.25000000E-01  3.75000000E-01
                       0.00000000E+00 -3.75000000E-01  5.00000000E-01
                       1.25000000E-01 -2.50000000E-01  5.00000000E-01
                       0.00000000E+00 -2.50000000E-01 -3.75000000E-01
                       0.00000000E+00 -1.25000000E-01 -2.50000000E-01
                       0.00000000E+00  0.00000000E+00  1.25000000E-01
                       1.25000000E-01  1.25000000E-01  1.25000000E-01
                       2.50000000E-01  2.50000000E-01  1.25000000E-01
                       3.75000000E-01  3.75000000E-01  1.25000000E-01
                       5.00000000E-01  5.00000000E-01  1.25000000E-01
                      -3.75000000E-01 -3.75000000E-01  1.25000000E-01
                      -2.50000000E-01 -2.50000000E-01  1.25000000E-01
                      -1.25000000E-01 -1.25000000E-01  1.25000000E-01
                       1.25000000E-01  2.50000000E-01  2.50000000E-01
                       2.50000000E-01  3.75000000E-01  2.50000000E-01
              kpt2     5.00000000E-01  0.00000000E+00  0.00000000E+00
                       4.50000000E-01  0.00000000E+00  0.00000000E+00
                       4.00000000E-01  0.00000000E+00  0.00000000E+00
                       3.50000000E-01  0.00000000E+00  0.00000000E+00
                       3.00000000E-01  0.00000000E+00  0.00000000E+00
                       2.50000000E-01  0.00000000E+00  0.00000000E+00
                       2.00000000E-01  0.00000000E+00  0.00000000E+00
                       1.50000000E-01  0.00000000E+00  0.00000000E+00
                       1.00000000E-01  0.00000000E+00  0.00000000E+00
                       5.00000000E-02  0.00000000E+00  0.00000000E+00
                       0.00000000E+00  0.00000000E+00  0.00000000E+00
                       2.08333333E-02  4.16666667E-02  6.25000000E-02
                       4.16666667E-02  8.33333333E-02  1.25000000E-01
                       6.25000000E-02  1.25000000E-01  1.87500000E-01
                       8.33333333E-02  1.66666667E-01  2.50000000E-01
                       1.04166667E-01  2.08333333E-01  3.12500000E-01
                       1.25000000E-01  2.50000000E-01  3.75000000E-01
                       1.45833333E-01  2.91666667E-01  4.37500000E-01
                       1.66666667E-01  3.33333333E-01  5.00000000E-01
                       1.87500000E-01  3.75000000E-01  5.62500000E-01
                       2.08333333E-01  4.16666667E-01  6.25000000E-01
                       2.29166667E-01  4.58333333E-01  6.87500000E-01
                       2.50000000E-01  5.00000000E-01  7.50000000E-01
                       2.57352941E-01  4.92647059E-01  7.50000000E-01
                       2.64705882E-01  4.85294118E-01  7.50000000E-01
                       2.72058824E-01  4.77941176E-01  7.50000000E-01
                       2.79411765E-01  4.70588235E-01  7.50000000E-01
                       2.86764706E-01  4.63235294E-01  7.50000000E-01
                       2.94117647E-01  4.55882353E-01  7.50000000E-01
                       3.01470588E-01  4.48529412E-01  7.50000000E-01
                       3.08823529E-01  4.41176471E-01  7.50000000E-01
                       3.16176471E-01  4.33823529E-01  7.50000000E-01
                       3.23529412E-01  4.26470588E-01  7.50000000E-01
                       3.30882353E-01  4.19117647E-01  7.50000000E-01
                       3.38235294E-01  4.11764706E-01  7.50000000E-01
                       3.45588235E-01  4.04411765E-01  7.50000000E-01
                       3.52941176E-01  3.97058824E-01  7.50000000E-01
                       3.60294118E-01  3.89705882E-01  7.50000000E-01
                       3.67647059E-01  3.82352941E-01  7.50000000E-01
                       3.75000000E-01  3.75000000E-01  7.50000000E-01
                       outvar_i_n : Printing only first  50 k-points.
           kptopt1          1
           kptopt2         -3
         kptrlatt        4    4   -4     -4    4    4      4   -4    4
          kptrlen1     4.57563324E+01
          kptrlen2     3.00000000E+01
P           mkmem1         72
P           mkmem2         40
            natom           2
            nband1          5
            nband2          8
           nbdbuf1          0
           nbdbuf2          2
           ndtset           2
            ngfft          16      16      16
             nkpt1         72
             nkpt2         40
            nstep          20
             nsym           2
           ntypat           2
              occ      2.000000  2.000000  2.000000  2.000000  0.000000
            rprim      0.0000000000E+00  5.0000000000E-01  5.0000000000E-01
                       5.0000000000E-01  0.0000000000E+00  5.0000000000E-01
                       5.0000000000E-01  5.0000000000E-01  0.0000000000E+00
           shiftk1    -5.00000000E-01  5.00000000E-01  5.00000000E-01
           shiftk2     5.00000000E-01  5.00000000E-01  5.00000000E-01
          spgroup           8
           symrel      1  0  0   0  1  0   0  0  1       0  1  0   1  0  0   0  0  1
           toldfe1     1.00000000E-06 Hartree
           toldfe2     0.00000000E+00 Hartree
           tolwfr1     0.00000000E+00
           tolwfr2     1.00000000E-12
            typat      1  2
              wtk1       0.01563    0.01563    0.01563    0.01563    0.01563    0.01563
                         0.01563    0.01563    0.01563    0.01563    0.01563    0.01563
                         0.01563    0.01563    0.01563    0.01563    0.01563    0.01563
                         0.01563    0.01563    0.01563    0.01563    0.01563    0.01563
                         0.01563    0.01563    0.01563    0.01563    0.01563    0.01563
                         0.01563    0.01563    0.01563    0.01563    0.01563    0.01563
                         0.01563    0.01563    0.01563    0.01563    0.00781    0.00781
                         0.00781    0.00781    0.00781    0.00781    0.00781    0.00781
                         0.01563    0.01563
              wtk2       1.00000    1.00000    1.00000    1.00000    1.00000    1.00000
                         1.00000    1.00000    1.00000    1.00000    1.00000    1.00000
                         1.00000    1.00000    1.00000    1.00000    1.00000    1.00000
                         1.00000    1.00000    1.00000    1.00000    1.00000    1.00000
                         1.00000    1.00000    1.00000    1.00000    1.00000    1.00000
                         1.00000    1.00000    1.00000    1.00000    1.00000    1.00000
                         1.00000    1.00000    1.00000    1.00000
                       outvars : Printing only first  50 k-points.
           xangst      0.0000000000E+00  0.0000000000E+00  0.0000000000E+00
                       1.5133250000E+00  1.5133250000E+00  1.5145750000E+00
            xcart      0.0000000000E+00  0.0000000000E+00  0.0000000000E+00
                       2.8597698000E+00  2.8597698000E+00  2.8621319577E+00
             xred      0.0000000000E+00  0.0000000000E+00  0.0000000000E+00
                       2.5000000000E-01  2.5000000000E-01  2.5000000000E-01
            znucl       49.00000   33.00000

================================================================================

 chkinp: Checking input parameters for consistency, jdtset=   1.

 chkinp: Checking input parameters for consistency, jdtset=   2.

================================================================================
== DATASET  1 ==================================================================
-   mpi_nproc: 1, omp_nthreads: -1 (-1 if OMP is not activated)


--- !DatasetInfo
iteration_state: {dtset: 1, }
dimensions: {natom: 2, nkpt: 72, mband: 5, nsppol: 1, nspinor: 1, nspden: 1, mpw: 153, }
cutoff_energies: {ecut:   4.0, pawecutdg:  -1.0, }
electrons: {nelect:   8.00000000E+00, charge:   0.00000000E+00, occopt:   1.00000000E+00, tsmear:   1.00000000E-02, }
meta: {optdriver: 0, ionmov: 0, optcell: 0, iscf: 7, paral_kgb: 0, }
...

 Exchange-correlation functional for the present dataset will be:
  LDA: new Teter (4/93) with spin-polarized option - ixc=1
 Citation for XC functional:
  S. Goedecker, M. Teter, J. Huetter, PRB 54, 1703 (1996)

 Real(R)+Recip(G) space primitive vectors, cartesian coordinates (Bohr,Bohr^-1):
 R(1)=  0.0000000  5.7242639  5.7242639  G(1)= -0.0873475  0.0873475  0.0873475
 R(2)=  5.7242639  0.0000000  5.7242639  G(2)=  0.0873475 -0.0873475  0.0873475
 R(3)=  5.7148153  5.7148153  0.0000000  G(3)=  0.0874919  0.0874919 -0.0874919
 Unit cell volume ucvol=  3.7451696E+02 bohr^3
 Angles (23,13,12)=  6.00000000E+01  6.00000000E+01  6.00000000E+01 degrees

 getcut: wavevector=  0.0000  0.0000  0.0000  ngfft=  16  16  16
         ecut(hartree)=      4.000   => boxcut(ratio)=   2.19528

--- Pseudopotential description ------------------------------------------------
- pspini: atom type   1  psp file is 49in.pspnc
- pspatm: opening atomic psp file    49in.pspnc
-  Troullier-Martins psp for element  In        Thu Oct 27 17:43:15 EDT 1994
- 49.00000   3.00000    940714                znucl, zion, pspdat
    1    1    1    0      2001   0.00000      pspcod,pspxc,lmax,lloc,mmax,r2well
    0   8.236  12.726    0   2.1883691        l,e99.0,e99.9,nproj,rcpsp
   0.00000000   0.00000000   0.00000000   0.00000000     rms, ekb1, ekb2, epsatm
    1   3.329   5.528    1   2.6396875        l,e99.0,e99.9,nproj,rcpsp
   0.00000000   0.00000000   0.00000000   0.00000000     rms, ekb1, ekb2, epsatm
    3.24177624483359    0.09532364101432    2.83397955305767   rchrg,fchrg,qchrg
  pspatm : epsatm=   39.73038112
         --- l  ekb(1:nproj) -->
             1    0.789729
 pspatm: atomic psp has been read  and splines computed

- pspini: atom type   2  psp file is 33as.pspnc
- pspatm: opening atomic psp file    33as.pspnc
-  Troullier-Martins psp for element  As        Thu Oct 27 17:37:14 EDT 1994
- 33.00000   5.00000    940714                znucl, zion, pspdat
    1    1    1    1      2001   0.00000      pspcod,pspxc,lmax,lloc,mmax,r2well
    0   4.772  10.829    1   2.5306160        l,e99.0,e99.9,nproj,rcpsp
   0.00000000   0.00000000   0.00000000   0.00000000     rms, ekb1, ekb2, epsatm
    1   2.745   5.580    0   2.5306160        l,e99.0,e99.9,nproj,rcpsp
   0.00000000   0.00000000   0.00000000   0.00000000     rms, ekb1, ekb2, epsatm
    2.05731715564010    0.36322996461007    2.76014815959125   rchrg,fchrg,qchrg
  pspatm : epsatm=   27.20579911
         --- l  ekb(1:nproj) -->
             0    0.838751
 pspatm: atomic psp has been read  and splines computed

   5.35489442E+02                                ecore*ucvol(ha*bohr**3)
--------------------------------------------------------------------------------

_setup2: Arith. and geom. avg. npw (full set) are     143.219     143.188

================================================================================

--- !BeginCycle
iteration_state: {dtset: 1, }
solver: {iscf: 7, nstep: 20, nline: 4, wfoptalg: 0, }
tolerances: {toldfe: 1.00E-06, }
...

     iter   Etot(hartree)      deltaE(h)  residm     vres2
 ETOT  1  -10.592802504099    -1.059E+01 1.531E-02 3.415E+00
 ETOT  2  -10.599300640469    -6.498E-03 7.469E-05 2.194E-01
 ETOT  3  -10.599576681957    -2.760E-04 2.641E-05 1.489E-02
 ETOT  4  -10.599598339428    -2.166E-05 9.662E-07 7.834E-04
 ETOT  5  -10.599599259878    -9.205E-07 1.858E-07 1.539E-06
 ETOT  6  -10.599599260982    -1.103E-09 4.151E-09 5.345E-08

 At SCF step    6, etot is converged : 
  for the second time, diff in etot=  1.103E-09 < toldfe=  1.000E-06

 Cartesian components of stress tensor (hartree/bohr^3)
  sigma(1 1)=  4.05169332E-04  sigma(3 2)=  1.01686974E-06
  sigma(2 2)=  4.05169332E-04  sigma(3 1)=  1.01686974E-06
  sigma(3 3)=  4.06346072E-04  sigma(2 1)= -1.81917901E-06


--- !ResultsGS
iteration_state: {dtset: 1, }
comment   : Summary of ground state results
lattice_vectors:
- [  0.0000000,   5.7242639,   5.7242639, ]
- [  5.7242639,   0.0000000,   5.7242639, ]
- [  5.7148153,   5.7148153,   0.0000000, ]
lattice_lengths: [   8.09533,    8.09533,    8.08197, ]
lattice_angles: [ 60.000,  60.000,  60.000, ] # degrees, (23, 13, 12)
lattice_volume:   3.7451696E+02
convergence: {deltae: -1.103E-09, res2:  5.345E-08, residm:  4.151E-09, diffor: null, }
etotal    :  -1.05995993E+01
entropy   :   0.00000000E+00
fermie    :  -6.57520908E-02
cartesian_stress_tensor: # hartree/bohr^3
- [  4.05169332E-04,  -1.81917901E-06,   1.01686974E-06, ]
- [ -1.81917901E-06,   4.05169332E-04,   1.01686974E-06, ]
- [  1.01686974E-06,   1.01686974E-06,   4.06346072E-04, ]
pressure_GPa:  -1.1932E+01
xred      :
- [  0.0000E+00,   0.0000E+00,   0.0000E+00, In]
- [  2.5000E-01,   2.5000E-01,   2.5000E-01, As]
cartesian_forces: # hartree/bohr
- [  4.11322954E-05,   4.11322954E-05,  -8.31967310E-05, ]
- [ -4.11322954E-05,  -4.11322954E-05,   8.31967310E-05, ]
force_length_stats: {min:   1.01515651E-04, max:   1.01515651E-04, mean:   1.01515651E-04, }
...

 Integrated electronic density in atomic spheres:
 ------------------------------------------------
 Atom  Sphere_radius  Integrated_density
    1        2.00000          0.62199408
    2        2.00000          2.38201760
================================================================================

 ----iterations are completed or convergence reached----

 Mean square residual over all n,k,spin=   21.264E-11; max=  41.513E-10
 reduced coordinates (array xred) for    2 atoms
       0.000000000000      0.000000000000      0.000000000000
       0.250000000000      0.250000000000      0.250000000000
 rms dE/dt=  3.3515E-04; max dE/dt=  4.7050E-04; dE/dt below (all hartree)
    1       0.000241115154      0.000241115154     -0.000469751821
    2      -0.000240460709     -0.000240460709      0.000470502060

 cartesian coordinates (angstrom) at end:
    1      0.00000000000000     0.00000000000000     0.00000000000000
    2      1.51332500000000     1.51332500000000     1.51457500000000

 cartesian forces (hartree/bohr) at end:
    1      0.00004113229536     0.00004113229536    -0.00008319673101
    2     -0.00004113229536    -0.00004113229536     0.00008319673101
 frms,max,avg= 5.8610089E-05 8.3196731E-05  -3.282E-08 -3.282E-08 -2.434E-08 h/b

 cartesian forces (eV/Angstrom) at end:
    1      0.00211510749118     0.00211510749118    -0.00427814755957
    2     -0.00211510749118    -0.00211510749118     0.00427814755957
 frms,max,avg= 3.0138517E-03 4.2781476E-03  -1.688E-06 -1.688E-06 -1.252E-06 e/A
 length scales= 11.448527830861 11.448527830861 11.429630569532 bohr
              =  6.058300000000  6.058300000000  6.048300000000 angstroms
 prteigrs : about to open file testo_DS1_EIG
 Fermi (or HOMO) energy (hartree) =  -0.06575   Average Vxc (hartree)=  -0.33348
 Eigenvalues (hartree) for nkpt=  72  k points:
 kpt#   1, nband=  5, wtk=  0.01563, kpt=  0.0000 -0.1250  0.0000 (reduced coord)
  -0.46588   -0.12193   -0.06597   -0.06575   -0.00639
 prteigrs : prtvol=0 or 1, do not print more k-points.


--- !EnergyTerms
iteration_state     : {dtset: 1, }
comment             : Components of total free energy in Hartree
kinetic             :  2.74764573910654E+00
hartree             :  9.51573497400952E-01
xc                  : -4.89249306396500E+00
Ewald energy        : -7.86312409548520E+00
psp_core            :  1.42981359439565E+00
local_psp           : -3.15666583502099E+00
non_local_psp       :  1.83650902586545E-01
total_energy        : -1.05995992609815E+01
total_energy_eV     : -2.88429764252740E+02
band_energy         : -1.76306600219393E+00
...


 Cartesian components of stress tensor (hartree/bohr^3)
  sigma(1 1)=  4.05169332E-04  sigma(3 2)=  1.01686974E-06
  sigma(2 2)=  4.05169332E-04  sigma(3 1)=  1.01686974E-06
  sigma(3 3)=  4.06346072E-04  sigma(2 1)= -1.81917901E-06

-Cartesian components of stress tensor (GPa)         [Pressure= -1.1932E+01 GPa]
- sigma(1 1)=  1.19204913E+01  sigma(3 2)=  2.99173355E-02
- sigma(2 2)=  1.19204913E+01  sigma(3 1)=  2.99173355E-02
- sigma(3 3)=  1.19551122E+01  sigma(2 1)= -5.35220854E-02

================================================================================
== DATASET  2 ==================================================================
-   mpi_nproc: 1, omp_nthreads: -1 (-1 if OMP is not activated)


--- !DatasetInfo
iteration_state: {dtset: 2, }
dimensions: {natom: 2, nkpt: 40, mband: 8, nsppol: 1, nspinor: 1, nspden: 1, mpw: 153, }
cutoff_energies: {ecut:   4.0, pawecutdg:  -1.0, }
electrons: {nelect:   8.00000000E+00, charge:   0.00000000E+00, occopt:   1.00000000E+00, tsmear:   1.00000000E-02, }
meta: {optdriver: 0, ionmov: 0, optcell: 0, iscf: -2, paral_kgb: 0, }
...

 mkfilename : getden/=0, take file _DEN from output of DATASET   1.

 Exchange-correlation functional for the present dataset will be:
  LDA: new Teter (4/93) with spin-polarized option - ixc=1
 Citation for XC functional:
  S. Goedecker, M. Teter, J. Huetter, PRB 54, 1703 (1996)

 Real(R)+Recip(G) space primitive vectors, cartesian coordinates (Bohr,Bohr^-1):
 R(1)=  0.0000000  5.7242639  5.7242639  G(1)= -0.0873475  0.0873475  0.0873475
 R(2)=  5.7242639  0.0000000  5.7242639  G(2)=  0.0873475 -0.0873475  0.0873475
 R(3)=  5.7148153  5.7148153  0.0000000  G(3)=  0.0874919  0.0874919 -0.0874919
 Unit cell volume ucvol=  3.7451696E+02 bohr^3
 Angles (23,13,12)=  6.00000000E+01  6.00000000E+01  6.00000000E+01 degrees

 getcut: wavevector=  0.0000  0.0000  0.0000  ngfft=  16  16  16
         ecut(hartree)=      4.000   => boxcut(ratio)=   2.19528
--------------------------------------------------------------------------------


================================================================================
 prteigrs : about to open file testo_DS2_EIG
 Non-SCF case, kpt    1 (  0.50000  0.00000  0.00000), residuals and eigenvalues=
  2.39E-13  1.35E-13  1.44E-13  4.51E-13  1.45E-13  6.15E-13  5.21E-14  4.14E-11
 -4.2740E-01 -2.4860E-01 -8.4514E-02 -8.4312E-02 -1.3678E-02  1.0413E-01
  1.0484E-01  1.9316E-01
  prteigrs : nnsclo,ikpt=   20    1 max resid (incl. the buffer)=  4.13522E-11
 Non-SCF case, kpt    2 (  0.45000  0.00000  0.00000), residuals and eigenvalues=
  9.45E-14  3.89E-13  2.53E-13  5.11E-13  2.30E-13  6.58E-13  4.34E-13  9.40E-10
 -4.2921E-01 -2.4624E-01 -8.4102E-02 -8.3899E-02 -1.4585E-02  1.0471E-01
  1.0541E-01  1.9228E-01
  prteigrs : nnsclo,ikpt=   20    2 max resid (incl. the buffer)=  9.40499E-10
 Non-SCF case, kpt    3 (  0.40000  0.00000  0.00000), residuals and eigenvalues=
  1.87E-13  2.54E-13  4.17E-13  2.45E-13  8.25E-14  8.91E-13  1.17E-13  4.59E-09
 -4.3324E-01 -2.3717E-01 -8.2819E-02 -8.2616E-02 -1.2402E-02  1.0667E-01
  1.0737E-01  1.8826E-01
  prteigrs : nnsclo,ikpt=   20    3 max resid (incl. the buffer)=  4.59193E-09
 Non-SCF case, kpt    4 (  0.35000  0.00000  0.00000), residuals and eigenvalues=
  3.09E-13  4.17E-13  9.11E-13  2.63E-13  6.21E-13  9.74E-13  9.04E-13  1.89E-09
 -4.3870E-01 -2.2294E-01 -8.0693E-02 -8.0489E-02 -8.7645E-03  1.0942E-01
  1.1011E-01  1.7707E-01
  prteigrs : nnsclo,ikpt=   20    4 max resid (incl. the buffer)=  1.89256E-09
 Non-SCF case, kpt    5 (  0.30000  0.00000  0.00000), residuals and eigenvalues=
  4.13E-13  9.30E-13  8.12E-13  6.68E-13  1.81E-13  5.53E-13  4.56E-13  8.16E-11
 -4.4522E-01 -2.0476E-01 -7.7919E-02 -7.7713E-02 -4.4052E-03  1.1191E-01
  1.1259E-01  1.5766E-01
  prteigrs : nnsclo,ikpt=   20    5 max resid (incl. the buffer)=  8.16320E-11
 Non-SCF case, kpt    6 (  0.25000  0.00000  0.00000), residuals and eigenvalues=
  1.31E-13  5.70E-13  5.80E-13  9.25E-13  1.77E-13  7.54E-13  3.08E-13  4.56E-12
 -4.5261E-01 -1.8351E-01 -7.4742E-02 -7.4533E-02 -2.8028E-04  1.1249E-01
  1.1316E-01  1.3508E-01
  prteigrs : nnsclo,ikpt=   20    6 max resid (incl. the buffer)=  4.55709E-12
 Non-SCF case, kpt    7 (  0.20000  0.00000  0.00000), residuals and eigenvalues=
  1.33E-13  3.23E-13  6.63E-13  9.48E-13  6.10E-13  5.97E-13  1.89E-13  6.05E-13
 -4.5853E-01 -1.5997E-01 -7.1146E-02 -7.0934E-02  1.8243E-03  1.1044E-01
  1.1109E-01  1.1450E-01
 Non-SCF case, kpt    8 (  0.15000  0.00000  0.00000), residuals and eigenvalues=
  2.72E-13  6.48E-14  7.06E-14  1.59E-13  5.80E-13  1.69E-13  9.29E-13  7.46E-13
 -4.6387E-01 -1.3488E-01 -6.7597E-02 -6.7381E-02 -1.5940E-03  9.9700E-02
  1.0583E-01  1.0647E-01
 Non-SCF case, kpt    9 (  0.10000  0.00000  0.00000), residuals and eigenvalues=
  1.47E-13  2.99E-13  4.19E-13  5.48E-13  1.71E-13  4.67E-13  2.73E-13  2.67E-13
 -4.6754E-01 -1.0884E-01 -6.4520E-02 -6.4302E-02 -1.3336E-02  9.3712E-02
  1.0051E-01  1.0114E-01
 Non-SCF case, kpt   10 (  0.05000  0.00000  0.00000), residuals and eigenvalues=
  1.51E-13  1.52E-13  7.31E-13  6.65E-14  8.50E-13  2.60E-13  3.81E-13  3.89E-13
 -4.6924E-01 -8.2320E-02 -6.2274E-02 -6.2052E-02 -3.1654E-02  9.4152E-02
  9.6907E-02  9.7544E-02
 Non-SCF case, kpt   11 (  0.00000  0.00000  0.00000), residuals and eigenvalues=
  4.17E-13  1.33E-13  2.55E-14  7.45E-13  1.11E-13  1.96E-13  8.67E-13  1.50E-13
 -4.6932E-01 -6.1485E-02 -6.1439E-02 -6.1247E-02 -4.9134E-02  9.5520E-02
  9.5788E-02  9.6394E-02
 Non-SCF case, kpt   12 (  0.02083  0.04167  0.06250), residuals and eigenvalues=
  3.55E-13  3.56E-13  6.00E-14  9.82E-14  9.79E-13  3.32E-13  8.39E-13  2.97E-13
 -4.6905E-01 -8.3389E-02 -6.3728E-02 -6.2399E-02 -2.9261E-02  9.1934E-02
  9.7541E-02  9.9405E-02
 Non-SCF case, kpt   13 (  0.04167  0.08333  0.12500), residuals and eigenvalues=
  1.30E-13  1.41E-13  7.30E-13  8.23E-13  1.66E-13  2.81E-13  8.08E-12  1.20E-11
 -4.6681E-01 -1.1023E-01 -7.0161E-02 -6.5154E-02 -6.1528E-03  8.4088E-02
  1.0352E-01  1.0916E-01
  prteigrs : nnsclo,ikpt=   20   13 max resid (incl. the buffer)=  1.20482E-11
 Non-SCF case, kpt   14 (  0.06250  0.12500  0.18750), residuals and eigenvalues=
  2.64E-13  2.91E-13  8.89E-13  7.98E-13  1.05E-13  2.60E-13  1.11E-11  4.17E-12
 -4.6231E-01 -1.3586E-01 -7.9910E-02 -6.9329E-02  1.4216E-02  7.5955E-02
  1.1336E-01  1.2297E-01
  prteigrs : nnsclo,ikpt=   20   14 max resid (incl. the buffer)=  1.11373E-11
 Non-SCF case, kpt   15 (  0.08333  0.16667  0.25000), residuals and eigenvalues=
  1.14E-13  1.62E-13  1.71E-13  9.57E-13  1.31E-13  7.54E-13  2.56E-08  3.11E-08
 -4.5625E-01 -1.5980E-01 -9.2013E-02 -7.4766E-02  3.0787E-02  6.9652E-02
  1.2638E-01  1.3229E-01
  prteigrs : nnsclo,ikpt=   20   15 max resid (incl. the buffer)=  3.11140E-08
 Non-SCF case, kpt   16 (  0.10417  0.20833  0.31250), residuals and eigenvalues=
  1.20E-13  3.56E-13  4.10E-13  5.43E-14  2.64E-13  7.59E-13  7.48E-10  1.61E-09
 -4.4868E-01 -1.8157E-01 -1.0529E-01 -8.1413E-02  4.3399E-02  6.6091E-02
  1.2945E-01  1.4238E-01
  prteigrs : nnsclo,ikpt=   20   16 max resid (incl. the buffer)=  1.61223E-09
 Non-SCF case, kpt   17 (  0.12500  0.25000  0.37500), residuals and eigenvalues=
  8.71E-13  9.78E-14  6.05E-14  1.83E-13  8.95E-13  1.47E-13  1.98E-10  3.51E-07
 -4.4094E-01 -2.0076E-01 -1.1874E-01 -8.9369E-02  5.1887E-02  6.5281E-02
  1.2239E-01  1.6037E-01
  prteigrs : nnsclo,ikpt=   20   17 max resid (incl. the buffer)=  3.50722E-07
 Non-SCF case, kpt   18 (  0.14583  0.29167  0.43750), residuals and eigenvalues=
  8.36E-13  7.28E-14  3.02E-13  1.63E-13  2.24E-13  5.12E-13  8.22E-12  2.27E-06
 -4.3279E-01 -2.1688E-01 -1.3126E-01 -9.8488E-02  5.7037E-02  6.7637E-02
  1.1763E-01  1.8067E-01
  prteigrs : nnsclo,ikpt=   20   18 max resid (incl. the buffer)=  2.26526E-06
 Non-SCF case, kpt   19 (  0.16667  0.33333  0.50000), residuals and eigenvalues=
  1.78E-13  3.32E-14  2.85E-14  4.86E-14  4.38E-13  1.87E-13  1.23E-11  1.28E-05
 -4.2495E-01 -2.2947E-01 -1.4200E-01 -1.0850E-01  6.0619E-02  7.2969E-02
  1.1623E-01  2.0304E-01
  prteigrs : nnsclo,ikpt=   20   19 max resid (incl. the buffer)=  1.28042E-05
 Non-SCF case, kpt   20 (  0.18750  0.37500  0.56250), residuals and eigenvalues=
  4.63E-13  7.34E-13  3.49E-13  6.71E-14  6.05E-13  3.67E-13  6.66E-13  3.17E-05
 -4.1829E-01 -2.3831E-01 -1.5019E-01 -1.1890E-01  6.4608E-02  8.0508E-02
  1.1784E-01  2.2642E-01
  prteigrs : nnsclo,ikpt=   20   20 max resid (incl. the buffer)=  3.17420E-05
 Non-SCF case, kpt   21 (  0.20833  0.41667  0.62500), residuals and eigenvalues=
  4.14E-13  9.73E-13  2.22E-13  8.67E-13  9.85E-13  7.86E-13  5.92E-13  2.91E-09
 -4.1332E-01 -2.4382E-01 -1.5486E-01 -1.2908E-01  6.9968E-02  8.9645E-02
  1.2187E-01  2.0299E-01
  prteigrs : nnsclo,ikpt=   20   21 max resid (incl. the buffer)=  2.90885E-09
 Non-SCF case, kpt   22 (  0.22917  0.45833  0.68750), residuals and eigenvalues=
  1.63E-13  2.69E-13  1.07E-13  2.22E-13  4.24E-13  3.52E-13  1.54E-12  9.17E-11
 -4.1078E-01 -2.4674E-01 -1.5563E-01 -1.3807E-01  7.6451E-02  9.8815E-02
  1.2758E-01  1.6866E-01
  prteigrs : nnsclo,ikpt=   20   22 max resid (incl. the buffer)=  9.16869E-11
 Non-SCF case, kpt   23 (  0.25000  0.50000  0.75000), residuals and eigenvalues=
  5.00E-14  3.94E-13  7.30E-13  3.15E-13  4.82E-13  2.01E-13  2.66E-13  8.42E-13
 -4.0979E-01 -2.4723E-01 -1.5392E-01 -1.4298E-01  8.1129E-02  1.0457E-01
  1.2978E-01  1.5178E-01
 Non-SCF case, kpt   24 (  0.25735  0.49265  0.75000), residuals and eigenvalues=
  5.56E-14  4.31E-13  6.63E-13  4.05E-13  3.18E-13  1.86E-13  2.59E-13  2.25E-13
 -4.0981E-01 -2.4724E-01 -1.5401E-01 -1.4273E-01  8.0373E-02  1.0410E-01
  1.3041E-01  1.5261E-01
 Non-SCF case, kpt   25 (  0.26471  0.48529  0.75000), residuals and eigenvalues=
  6.24E-14  4.73E-13  6.13E-13  5.32E-13  5.26E-13  1.62E-13  3.75E-13  4.71E-13
 -4.0987E-01 -2.4725E-01 -1.5429E-01 -1.4195E-01  7.8019E-02  1.0310E-01
  1.3234E-01  1.5475E-01
 Non-SCF case, kpt   26 (  0.27206  0.47794  0.75000), residuals and eigenvalues=
  7.03E-14  5.22E-13  6.06E-13  7.04E-13  6.72E-13  9.47E-13  7.17E-13  7.21E-11
 -4.0996E-01 -2.4727E-01 -1.5475E-01 -1.4068E-01  7.4146E-02  1.0213E-01
  1.3532E-01  1.5783E-01
  prteigrs : nnsclo,ikpt=   20   26 max resid (incl. the buffer)=  7.21402E-11
 Non-SCF case, kpt   27 (  0.27941  0.47059  0.75000), residuals and eigenvalues=
  1.02E-13  4.07E-13  2.46E-13  4.46E-13  3.67E-13  5.23E-13  6.22E-12  4.45E-11
 -4.1014E-01 -2.4738E-01 -1.5535E-01 -1.3899E-01  6.9127E-02  1.0135E-01
  1.3891E-01  1.6157E-01
  prteigrs : nnsclo,ikpt=   20   27 max resid (incl. the buffer)=  4.45257E-11
 Non-SCF case, kpt   28 (  0.28676  0.46324  0.75000), residuals and eigenvalues=
  1.01E-13  5.26E-13  2.53E-13  5.96E-13  4.44E-13  4.85E-13  6.35E-12  1.50E-10
 -4.1027E-01 -2.4743E-01 -1.5601E-01 -1.3696E-01  6.3418E-02  1.0078E-01
  1.4318E-01  1.6580E-01
  prteigrs : nnsclo,ikpt=   20   28 max resid (incl. the buffer)=  1.50204E-10
 Non-SCF case, kpt   29 (  0.29412  0.45588  0.75000), residuals and eigenvalues=
  7.78E-13  8.21E-14  4.48E-13  6.28E-14  6.37E-13  5.17E-13  6.47E-11  2.63E-10
 -4.1063E-01 -2.4760E-01 -1.5672E-01 -1.3472E-01  5.7339E-02  1.0016E-01
  1.4780E-01  1.7036E-01
  prteigrs : nnsclo,ikpt=   20   29 max resid (incl. the buffer)=  2.63210E-10
 Non-SCF case, kpt   30 (  0.30147  0.44853  0.75000), residuals and eigenvalues=
  9.31E-13  8.63E-14  5.35E-13  1.07E-13  5.72E-13  5.17E-13  1.64E-10  9.51E-10
 -4.1079E-01 -2.4767E-01 -1.5740E-01 -1.3224E-01  5.1211E-02  9.9738E-02
  1.5281E-01  1.7518E-01
  prteigrs : nnsclo,ikpt=   20   30 max resid (incl. the buffer)=  9.51365E-10
 Non-SCF case, kpt   31 (  0.30882  0.44118  0.75000), residuals and eigenvalues=
  4.13E-13  8.93E-14  6.91E-13  2.51E-13  3.06E-13  8.53E-13  6.50E-12  1.47E-10
 -4.1044E-01 -2.4746E-01 -1.5801E-01 -1.2945E-01  4.5232E-02  9.9566E-02
  1.5819E-01  1.8072E-01
  prteigrs : nnsclo,ikpt=   20   31 max resid (incl. the buffer)=  1.46722E-10
 Non-SCF case, kpt   32 (  0.31618  0.43382  0.75000), residuals and eigenvalues=
  4.34E-13  4.39E-14  4.61E-13  9.53E-13  6.84E-13  9.74E-13  2.59E-11  1.09E-09
 -4.1060E-01 -2.4755E-01 -1.5861E-01 -1.2679E-01  3.9428E-02  9.9169E-02
  1.6365E-01  1.8578E-01
  prteigrs : nnsclo,ikpt=   20   32 max resid (incl. the buffer)=  1.08507E-09
 Non-SCF case, kpt   33 (  0.32353  0.42647  0.75000), residuals and eigenvalues=
  5.32E-13  3.27E-13  3.79E-13  2.91E-13  2.99E-13  1.45E-13  1.22E-10  6.35E-09
 -4.1075E-01 -2.4764E-01 -1.5916E-01 -1.2414E-01  3.3965E-02  9.8801E-02
  1.6929E-01  1.9083E-01
  prteigrs : nnsclo,ikpt=   20   33 max resid (incl. the buffer)=  6.35367E-09
 Non-SCF case, kpt   34 (  0.33088  0.41912  0.75000), residuals and eigenvalues=
  1.39E-13  7.10E-13  8.30E-13  6.70E-13  1.38E-13  3.87E-13  5.60E-11  2.04E-08
 -4.1099E-01 -2.4779E-01 -1.5968E-01 -1.2159E-01  2.8922E-02  9.8434E-02
  1.7506E-01  1.9569E-01
  prteigrs : nnsclo,ikpt=   20   34 max resid (incl. the buffer)=  2.03744E-08
 Non-SCF case, kpt   35 (  0.33824  0.41176  0.75000), residuals and eigenvalues=
  5.49E-14  7.69E-13  8.74E-13  9.77E-13  3.55E-13  7.75E-13  2.20E-09  1.35E-07
 -4.1098E-01 -2.4762E-01 -1.6003E-01 -1.1917E-01  2.4555E-02  9.8209E-02
  1.8117E-01  2.0055E-01
  prteigrs : nnsclo,ikpt=   20   35 max resid (incl. the buffer)=  1.34559E-07
 Non-SCF case, kpt   36 (  0.34559  0.40441  0.75000), residuals and eigenvalues=
  3.04E-13  4.17E-13  5.97E-14  6.46E-14  5.16E-13  2.35E-13  2.39E-09  6.48E-07
 -4.1096E-01 -2.4756E-01 -1.6035E-01 -1.1702E-01  2.0759E-02  9.8055E-02
  1.8733E-01  2.0498E-01
  prteigrs : nnsclo,ikpt=   20   36 max resid (incl. the buffer)=  6.47950E-07
 Non-SCF case, kpt   37 (  0.35294  0.39706  0.75000), residuals and eigenvalues=
  2.91E-13  6.19E-14  8.98E-13  6.84E-14  3.46E-13  4.79E-13  5.96E-09  3.64E-06
 -4.1104E-01 -2.4763E-01 -1.6063E-01 -1.1525E-01  1.7649E-02  9.7860E-02
  1.9337E-01  2.0887E-01
  prteigrs : nnsclo,ikpt=   20   37 max resid (incl. the buffer)=  3.63542E-06
 Non-SCF case, kpt   38 (  0.36029  0.38971  0.75000), residuals and eigenvalues=
  2.82E-13  3.02E-13  8.14E-13  9.72E-13  3.87E-13  6.31E-13  2.17E-07  9.00E-05
 -4.1111E-01 -2.4768E-01 -1.6082E-01 -1.1393E-01  1.5356E-02  9.7718E-02
  1.9945E-01  2.1271E-01
  prteigrs : nnsclo,ikpt=   20   38 max resid (incl. the buffer)=  9.00455E-05
 Non-SCF case, kpt   39 (  0.36765  0.38235  0.75000), residuals and eigenvalues=
  3.03E-13  2.27E-13  6.13E-13  7.21E-13  2.02E-13  9.95E-13  8.06E-06  7.93E-05
 -4.1115E-01 -2.4771E-01 -1.6094E-01 -1.1310E-01  1.3949E-02  9.7632E-02
  2.0557E-01  2.1536E-01
  prteigrs : nnsclo,ikpt=   20   39 max resid (incl. the buffer)=  7.93299E-05
 Non-SCF case, kpt   40 (  0.37500  0.37500  0.75000), residuals and eigenvalues=
  3.00E-13  2.15E-13  4.82E-13  7.38E-13  2.09E-13  8.67E-13  3.38E-07  1.33E-05
 -4.1116E-01 -2.4772E-01 -1.6098E-01 -1.1282E-01  1.3474E-02  9.7603E-02
  2.1065E-01  2.1366E-01
  prteigrs : nnsclo,ikpt=   20   40 max resid (incl. the buffer)=  1.32898E-05


--- !ResultsGS
iteration_state: {dtset: 2, }
comment   : Summary of ground state results
lattice_vectors:
- [  0.0000000,   5.7242639,   5.7242639, ]
- [  5.7242639,   0.0000000,   5.7242639, ]
- [  5.7148153,   5.7148153,   0.0000000, ]
lattice_lengths: [   8.09533,    8.09533,    8.08197, ]
lattice_angles: [ 60.000,  60.000,  60.000, ] # degrees, (23, 13, 12)
lattice_volume:   3.7451696E+02
convergence: {deltae:  0.000E+00, res2:  0.000E+00, residm:  9.947E-13, diffor:  0.000E+00, }
etotal    :  -1.05995993E+01
entropy   :   0.00000000E+00
fermie    :  -6.57520908E-02
cartesian_stress_tensor: null
pressure_GPa: null
xred      :
- [  0.0000E+00,   0.0000E+00,   0.0000E+00, In]
- [  2.5000E-01,   2.5000E-01,   2.5000E-01, As]
cartesian_forces: null
force_length_stats: {min: null, max: null, mean: null, }
...

 Integrated electronic density in atomic spheres:
 ------------------------------------------------
 Atom  Sphere_radius  Integrated_density
    1        2.00000          0.62199408
    2        2.00000          2.38201760
================================================================================

 ----iterations are completed or convergence reached----

 Mean square residual over all n,k,spin=   41.359E-14; max=  99.469E-14
 reduced coordinates (array xred) for    2 atoms
       0.000000000000      0.000000000000      0.000000000000
       0.250000000000      0.250000000000      0.250000000000

 cartesian coordinates (angstrom) at end:
    1      0.00000000000000     0.00000000000000     0.00000000000000
    2      1.51332500000000     1.51332500000000     1.51457500000000
 length scales= 11.448527830861 11.448527830861 11.429630569532 bohr
              =  6.058300000000  6.058300000000  6.048300000000 angstroms
 prteigrs : about to open file testo_DS2_EIG
 Eigenvalues (   eV  ) for nkpt=  40  k points:
 kpt#   1, nband=  8, wtk=  1.00000, kpt=  0.5000  0.0000  0.0000 (reduced coord)
 -11.63003   -6.76483   -2.29974   -2.29423   -0.37221    2.83350    2.85280    5.25605
 kpt#   2, nband=  8, wtk=  1.00000, kpt=  0.4500  0.0000  0.0000 (reduced coord)
 -11.67935   -6.70047   -2.28852   -2.28302   -0.39688    2.84923    2.86847    5.23226
 kpt#   3, nband=  8, wtk=  1.00000, kpt=  0.4000  0.0000  0.0000 (reduced coord)
 -11.78895   -6.45381   -2.25361   -2.24809   -0.33748    2.90267    2.92176    5.12291
 kpt#   4, nband=  8, wtk=  1.00000, kpt=  0.3500  0.0000  0.0000 (reduced coord)
 -11.93764   -6.06639   -2.19578   -2.19023   -0.23849    2.97735    2.99621    4.81823
 kpt#   5, nband=  8, wtk=  1.00000, kpt=  0.3000  0.0000  0.0000 (reduced coord)
 -12.11503   -5.57192   -2.12028   -2.11469   -0.11987    3.04518    3.06371    4.29014
 kpt#   6, nband=  8, wtk=  1.00000, kpt=  0.2500  0.0000  0.0000 (reduced coord)
 -12.31610   -4.99361   -2.03383   -2.02815   -0.00763    3.06110    3.07925    3.67578
 kpt#   7, nband=  8, wtk=  1.00000, kpt=  0.2000  0.0000  0.0000 (reduced coord)
 -12.47712   -4.35314   -1.93597   -1.93020    0.04964    3.00513    3.02280    3.11583
 kpt#   8, nband=  8, wtk=  1.00000, kpt=  0.1500  0.0000  0.0000 (reduced coord)
 -12.62265   -3.67022   -1.83939   -1.83354   -0.04337    2.71297    2.87972    2.89716
 kpt#   9, nband=  8, wtk=  1.00000, kpt=  0.1000  0.0000  0.0000 (reduced coord)
 -12.72241   -2.96173   -1.75567   -1.74974   -0.36290    2.55002    2.73501    2.75215
 kpt#  10, nband=  8, wtk=  1.00000, kpt=  0.0500  0.0000  0.0000 (reduced coord)
 -12.76861   -2.24005   -1.69457   -1.68852   -0.86134    2.56201    2.63697    2.65430
 kpt#  11, nband=  8, wtk=  1.00000, kpt=  0.0000  0.0000  0.0000 (reduced coord)
 -12.77081   -1.67310   -1.67185   -1.66662   -1.33701    2.59923    2.60653    2.62300
 kpt#  12, nband=  8, wtk=  1.00000, kpt=  0.0208  0.0417  0.0625 (reduced coord)
 -12.76345   -2.26913   -1.73412   -1.69795   -0.79622    2.50166    2.65422    2.70494
 kpt#  13, nband=  8, wtk=  1.00000, kpt=  0.0417  0.0833  0.1250 (reduced coord)
 -12.70259   -2.99947   -1.90917   -1.77293   -0.16743    2.28814    2.81694    2.97042
 kpt#  14, nband=  8, wtk=  1.00000, kpt=  0.0625  0.1250  0.1875 (reduced coord)
 -12.58007   -3.69692   -2.17447   -1.88653    0.38685    2.06685    3.08480    3.34616
 kpt#  15, nband=  8, wtk=  1.00000, kpt=  0.0833  0.1667  0.2500 (reduced coord)
 -12.41521   -4.34830   -2.50379   -2.03449    0.83776    1.89532    3.43905    3.59973
 kpt#  16, nband=  8, wtk=  1.00000, kpt=  0.1042  0.2083  0.3125 (reduced coord)
 -12.20907   -4.94071   -2.86499   -2.21537    1.18095    1.79844    3.52241    3.87442
 kpt#  17, nband=  8, wtk=  1.00000, kpt=  0.1250  0.2500  0.3750 (reduced coord)
 -11.99867   -5.46289   -3.23104   -2.43185    1.41192    1.77640    3.33048    4.36385
 kpt#  18, nband=  8, wtk=  1.00000, kpt=  0.1458  0.2917  0.4375 (reduced coord)
 -11.77675   -5.90174   -3.57190   -2.67999    1.55206    1.84050    3.20085    4.91621
 kpt#  19, nband=  8, wtk=  1.00000, kpt=  0.1667  0.3333  0.5000 (reduced coord)
 -11.56354   -6.24421   -3.86411   -2.95233    1.64952    1.98560    3.16268    5.52498
 kpt#  20, nband=  8, wtk=  1.00000, kpt=  0.1875  0.3750  0.5625 (reduced coord)
 -11.38226   -6.48486   -4.08683   -3.23556    1.75807    2.19072    3.20663    6.16108
 kpt#  21, nband=  8, wtk=  1.00000, kpt=  0.2083  0.4167  0.6250 (reduced coord)
 -11.24697   -6.63463   -4.21388   -3.51253    1.90392    2.43936    3.31622    5.52374
 kpt#  22, nband=  8, wtk=  1.00000, kpt=  0.2292  0.4583  0.6875 (reduced coord)
 -11.17785   -6.71411   -4.23486   -3.75713    2.08035    2.68889    3.47150    4.58960
 kpt#  23, nband=  8, wtk=  1.00000, kpt=  0.2500  0.5000  0.7500 (reduced coord)
 -11.15106   -6.72751   -4.18845   -3.89075    2.20762    2.84543    3.53142    4.13019
 kpt#  24, nband=  8, wtk=  1.00000, kpt=  0.2574  0.4926  0.7500 (reduced coord)
 -11.15155   -6.72772   -4.19076   -3.88382    2.18705    2.83259    3.54870    4.15279
 kpt#  25, nband=  8, wtk=  1.00000, kpt=  0.2647  0.4853  0.7500 (reduced coord)
 -11.15311   -6.72800   -4.19847   -3.86261    2.12301    2.80538    3.60125    4.21106
 kpt#  26, nband=  8, wtk=  1.00000, kpt=  0.2721  0.4779  0.7500 (reduced coord)
 -11.15555   -6.72849   -4.21109   -3.82798    2.01761    2.77904    3.68223    4.29476
 kpt#  27, nband=  8, wtk=  1.00000, kpt=  0.2794  0.4706  0.7500 (reduced coord)
 -11.16040   -6.73168   -4.22740   -3.78221    1.88104    2.75797    3.77984    4.39656
 kpt#  28, nband=  8, wtk=  1.00000, kpt=  0.2868  0.4632  0.7500 (reduced coord)
 -11.16406   -6.73293   -4.24538   -3.72692    1.72570    2.74242    3.89603    4.51154
 kpt#  29, nband=  8, wtk=  1.00000, kpt=  0.2941  0.4559  0.7500 (reduced coord)
 -11.17381   -6.73763   -4.26456   -3.66588    1.56028    2.72561    4.02196    4.63587
 kpt#  30, nband=  8, wtk=  1.00000, kpt=  0.3015  0.4485  0.7500 (reduced coord)
 -11.17807   -6.73949   -4.28298   -3.59831    1.39351    2.71401    4.15804    4.76689
 kpt#  31, nband=  8, wtk=  1.00000, kpt=  0.3088  0.4412  0.7500 (reduced coord)
 -11.16858   -6.73362   -4.29954   -3.52254    1.23082    2.70932    4.30446    4.91769
 kpt#  32, nband=  8, wtk=  1.00000, kpt=  0.3162  0.4338  0.7500 (reduced coord)
 -11.17294   -6.73616   -4.31599   -3.45012    1.07288    2.69852    4.45317    5.05520
 kpt#  33, nband=  8, wtk=  1.00000, kpt=  0.3235  0.4265  0.7500 (reduced coord)
 -11.17707   -6.73866   -4.33091   -3.37815    0.92424    2.68851    4.60654    5.19277
 kpt#  34, nband=  8, wtk=  1.00000, kpt=  0.3309  0.4191  0.7500 (reduced coord)
 -11.18370   -6.74268   -4.34501   -3.30876    0.78701    2.67853    4.76365    5.32499
 kpt#  35, nband=  8, wtk=  1.00000, kpt=  0.3382  0.4118  0.7500 (reduced coord)
 -11.18329   -6.73807   -4.35464   -3.24277    0.66818    2.67240    4.92981    5.45728
 kpt#  36, nband=  8, wtk=  1.00000, kpt=  0.3456  0.4044  0.7500 (reduced coord)
 -11.18270   -6.73657   -4.36342   -3.18418    0.56487    2.66820    5.09752    5.57784
 kpt#  37, nband=  8, wtk=  1.00000, kpt=  0.3529  0.3971  0.7500 (reduced coord)
 -11.18508   -6.73841   -4.37088   -3.13625    0.48026    2.66290    5.26181    5.68374
 kpt#  38, nband=  8, wtk=  1.00000, kpt=  0.3603  0.3897  0.7500 (reduced coord)
 -11.18683   -6.73976   -4.37624   -3.10009    0.41785    2.65904    5.42729    5.78813
 kpt#  39, nband=  8, wtk=  1.00000, kpt=  0.3676  0.3824  0.7500 (reduced coord)
 -11.18789   -6.74060   -4.37947   -3.07757    0.37956    2.65670    5.59381    5.86027
 kpt#  40, nband=  8, wtk=  1.00000, kpt=  0.3750  0.3750  0.7500 (reduced coord)
 -11.18824   -6.74088   -4.38055   -3.06992    0.36665    2.65592    5.73200    5.81387

== END DATASET(S) ==============================================================
================================================================================
  
 -outvars: echo values of variables after computation  --------
            acell      1.1448527831E+01  1.1448527831E+01  1.1429630570E+01 Bohr
              amu      1.14820000E+02  7.49215900E+01
           diemac      1.20000000E+01
             ecut      4.00000000E+00 Hartree
           enunit1          0
           enunit2          1
           etotal1    -1.0599599261E+01
            fcart1     4.1132295359E-05  4.1132295359E-05 -8.3196731014E-05
                      -4.1132295359E-05 -4.1132295359E-05  8.3196731014E-05
-          fftalg         112
           getden1          0
           getden2         -1
             iscf1          7
             iscf2         -2
           istwfk2       1    0    0    0    0    0    0    0    0    0
                         1    0    0    0    0    0    0    0    0    0
                         0    0    0    0    0    0    0    0    0    0
                         0    0    0    0    0    0    0    0    0    0
                       outvar_i_n : Printing only first  50 k-points.
           jdtset        1    2
              kpt1     0.00000000E+00 -1.25000000E-01  0.00000000E+00
                       0.00000000E+00 -3.75000000E-01  0.00000000E+00
                       1.25000000E-01 -2.50000000E-01  0.00000000E+00
                       0.00000000E+00 -2.50000000E-01  1.25000000E-01
                       1.25000000E-01 -1.25000000E-01  1.25000000E-01
                       0.00000000E+00 -1.25000000E-01  2.50000000E-01
                       1.25000000E-01  5.00000000E-01  0.00000000E+00
                       2.50000000E-01 -3.75000000E-01  0.00000000E+00
                       0.00000000E+00  5.00000000E-01  1.25000000E-01
                       1.25000000E-01 -3.75000000E-01  1.25000000E-01
                       2.50000000E-01 -2.50000000E-01  1.25000000E-01
                       3.75000000E-01 -1.25000000E-01  1.25000000E-01
                       0.00000000E+00 -3.75000000E-01  2.50000000E-01
                       1.25000000E-01 -2.50000000E-01  2.50000000E-01
                       2.50000000E-01 -1.25000000E-01  2.50000000E-01
                       0.00000000E+00 -2.50000000E-01  3.75000000E-01
                       1.25000000E-01 -1.25000000E-01  3.75000000E-01
                       0.00000000E+00 -1.25000000E-01  5.00000000E-01
                       1.25000000E-01  2.50000000E-01  0.00000000E+00
                       2.50000000E-01  3.75000000E-01  0.00000000E+00
                       3.75000000E-01  5.00000000E-01  0.00000000E+00
                       0.00000000E+00  2.50000000E-01  1.25000000E-01
                       1.25000000E-01  3.75000000E-01  1.25000000E-01
                       2.50000000E-01  5.00000000E-01  1.25000000E-01
                       3.75000000E-01 -3.75000000E-01  1.25000000E-01
                       5.00000000E-01 -2.50000000E-01  1.25000000E-01
                      -3.75000000E-01 -1.25000000E-01  1.25000000E-01
                       0.00000000E+00  3.75000000E-01  2.50000000E-01
                       1.25000000E-01  5.00000000E-01  2.50000000E-01
                       2.50000000E-01 -3.75000000E-01  2.50000000E-01
                       3.75000000E-01 -2.50000000E-01  2.50000000E-01
                       5.00000000E-01 -1.25000000E-01  2.50000000E-01
                       0.00000000E+00  5.00000000E-01  3.75000000E-01
                       1.25000000E-01 -3.75000000E-01  3.75000000E-01
                       2.50000000E-01 -2.50000000E-01  3.75000000E-01
                       3.75000000E-01 -1.25000000E-01  3.75000000E-01
                       0.00000000E+00 -3.75000000E-01  5.00000000E-01
                       1.25000000E-01 -2.50000000E-01  5.00000000E-01
                       0.00000000E+00 -2.50000000E-01 -3.75000000E-01
                       0.00000000E+00 -1.25000000E-01 -2.50000000E-01
                       0.00000000E+00  0.00000000E+00  1.25000000E-01
                       1.25000000E-01  1.25000000E-01  1.25000000E-01
                       2.50000000E-01  2.50000000E-01  1.25000000E-01
                       3.75000000E-01  3.75000000E-01  1.25000000E-01
                       5.00000000E-01  5.00000000E-01  1.25000000E-01
                      -3.75000000E-01 -3.75000000E-01  1.25000000E-01
                      -2.50000000E-01 -2.50000000E-01  1.25000000E-01
                      -1.25000000E-01 -1.25000000E-01  1.25000000E-01
                       1.25000000E-01  2.50000000E-01  2.50000000E-01
                       2.50000000E-01  3.75000000E-01  2.50000000E-01
              kpt2     5.00000000E-01  0.00000000E+00  0.00000000E+00
                       4.50000000E-01  0.00000000E+00  0.00000000E+00
                       4.00000000E-01  0.00000000E+00  0.00000000E+00
                       3.50000000E-01  0.00000000E+00  0.00000000E+00
                       3.00000000E-01  0.00000000E+00  0.00000000E+00
                       2.50000000E-01  0.00000000E+00  0.00000000E+00
                       2.00000000E-01  0.00000000E+00  0.00000000E+00
                       1.50000000E-01  0.00000000E+00  0.00000000E+00
                       1.00000000E-01  0.00000000E+00  0.00000000E+00
                       5.00000000E-02  0.00000000E+00  0.00000000E+00
                       0.00000000E+00  0.00000000E+00  0.00000000E+00
                       2.08333333E-02  4.16666667E-02  6.25000000E-02
                       4.16666667E-02  8.33333333E-02  1.25000000E-01
                       6.25000000E-02  1.25000000E-01  1.87500000E-01
                       8.33333333E-02  1.66666667E-01  2.50000000E-01
                       1.04166667E-01  2.08333333E-01  3.12500000E-01
                       1.25000000E-01  2.50000000E-01  3.75000000E-01
                       1.45833333E-01  2.91666667E-01  4.37500000E-01
                       1.66666667E-01  3.33333333E-01  5.00000000E-01
                       1.87500000E-01  3.75000000E-01  5.62500000E-01
                       2.08333333E-01  4.16666667E-01  6.25000000E-01
                       2.29166667E-01  4.58333333E-01  6.87500000E-01
                       2.50000000E-01  5.00000000E-01  7.50000000E-01
                       2.57352941E-01  4.92647059E-01  7.50000000E-01
                       2.64705882E-01  4.85294118E-01  7.50000000E-01
                       2.72058824E-01  4.77941176E-01  7.50000000E-01
                       2.79411765E-01  4.70588235E-01  7.50000000E-01
                       2.86764706E-01  4.63235294E-01  7.50000000E-01
                       2.94117647E-01  4.55882353E-01  7.50000000E-01
                       3.01470588E-01  4.48529412E-01  7.50000000E-01
                       3.08823529E-01  4.41176471E-01  7.50000000E-01
                       3.16176471E-01  4.33823529E-01  7.50000000E-01
                       3.23529412E-01  4.26470588E-01  7.50000000E-01
                       3.30882353E-01  4.19117647E-01  7.50000000E-01
                       3.38235294E-01  4.11764706E-01  7.50000000E-01
                       3.45588235E-01  4.04411765E-01  7.50000000E-01
                       3.52941176E-01  3.97058824E-01  7.50000000E-01
                       3.60294118E-01  3.89705882E-01  7.50000000E-01
                       3.67647059E-01  3.82352941E-01  7.50000000E-01
                       3.75000000E-01  3.75000000E-01  7.50000000E-01
                       outvar_i_n : Printing only first  50 k-points.
           kptopt1          1
           kptopt2         -3
         kptrlatt        4    4   -4     -4    4    4      4   -4    4
          kptrlen1     4.57563324E+01
          kptrlen2     3.00000000E+01
P           mkmem1         72
P           mkmem2         40
            natom           2
            nband1          5
            nband2          8
           nbdbuf1          0
           nbdbuf2          2
           ndtset           2
            ngfft          16      16      16
             nkpt1         72
             nkpt2         40
            nstep          20
             nsym           2
           ntypat           2
              occ      2.000000  2.000000  2.000000  2.000000  0.000000
            rprim      0.0000000000E+00  5.0000000000E-01  5.0000000000E-01
                       5.0000000000E-01  0.0000000000E+00  5.0000000000E-01
                       5.0000000000E-01  5.0000000000E-01  0.0000000000E+00
           shiftk1    -5.00000000E-01  5.00000000E-01  5.00000000E-01
           shiftk2     5.00000000E-01  5.00000000E-01  5.00000000E-01
          spgroup           8
           strten1     4.0516933157E-04  4.0516933157E-04  4.0634607181E-04
                       1.0168697373E-06  1.0168697373E-06 -1.8191790118E-06
           symrel      1  0  0   0  1  0   0  0  1       0  1  0   1  0  0   0  0  1
           toldfe1     1.00000000E-06 Hartree
           toldfe2     0.00000000E+00 Hartree
           tolwfr1     0.00000000E+00
           tolwfr2     1.00000000E-12
            typat      1  2
              wtk1       0.01563    0.01563    0.01563    0.01563    0.01563    0.01563
                         0.01563    0.01563    0.01563    0.01563    0.01563    0.01563
                         0.01563    0.01563    0.01563    0.01563    0.01563    0.01563
                         0.01563    0.01563    0.01563    0.01563    0.01563    0.01563
                         0.01563    0.01563    0.01563    0.01563    0.01563    0.01563
                         0.01563    0.01563    0.01563    0.01563    0.01563    0.01563
                         0.01563    0.01563    0.01563    0.01563    0.00781    0.00781
                         0.00781    0.00781    0.00781    0.00781    0.00781    0.00781
                         0.01563    0.01563
              wtk2       1.00000    1.00000    1.00000    1.00000    1.00000    1.00000
                         1.00000    1.00000    1.00000    1.00000    1.00000    1.00000
                         1.00000    1.00000    1.00000    1.00000    1.00000    1.00000
                         1.00000    1.00000    1.00000    1.00000    1.00000    1.00000
                         1.00000    1.00000    1.00000    1.00000    1.00000    1.00000
                         1.00000    1.00000    1.00000    1.00000    1.00000    1.00000
                         1.00000    1.00000    1.00000    1.00000
                       outvars : Printing only first  50 k-points.
           xangst      0.0000000000E+00  0.0000000000E+00  0.0000000000E+00
                       1.5133250000E+00  1.5133250000E+00  1.5145750000E+00
            xcart      0.0000000000E+00  0.0000000000E+00  0.0000000000E+00
                       2.8597698000E+00  2.8597698000E+00  2.8621319577E+00
             xred      0.0000000000E+00  0.0000000000E+00  0.0000000000E+00
                       2.5000000000E-01  2.5000000000E-01  2.5000000000E-01
            znucl       49.00000   33.00000

================================================================================


- Timing analysis has been suppressed with timopt=0



================================================================================

 Suggested references for the acknowledgment of ABINIT usage.

 The users of ABINIT have little formal obligations with respect to the ABINIT group
 (those specified in the GNU General Public License, http://www.gnu.org/copyleft/gpl.txt).
 However, it is common practice in the scientific literature,
 to acknowledge the efforts of people that have made the research possible.
 In this spirit, please find below suggested citations of work written by ABINIT developers,
 corresponding to implementations inside of ABINIT that you have used in the present run.
 Note also that it will be of great value to readers of publications presenting these results,
 to read papers enabling them to understand the theoretical formalism and details
 of the ABINIT implementation.
 For information on why they are suggested, see also https://docs.abinit.org/theory/acknowledgments.
-
- [1] The Abinit project: Impact, environment and recent developments.
- Computer Phys. Comm. 248, 107042 (2020).
- X.Gonze, B. Amadon, G. Antonius, F.Arnardi, L.Baguet, J.-M.Beuken,
- J.Bieder, F.Bottin, J.Bouchet, E.Bousquet, N.Brouwer, F.Bruneval,
- G.Brunin, T.Cavignac, J.-B. Charraud, Wei Chen, M.Cote, S.Cottenier,
- J.Denier, G.Geneste, Ph.Ghosez, M.Giantomassi, Y.Gillet, O.Gingras,
- D.R.Hamann, G.Hautier, Xu He, N.Helbig, N.Holzwarth, Y.Jia, F.Jollet,
- W.Lafargue-Dit-Hauret, K.Lejaeghere, M.A.L.Marques, A.Martin, C.Martins,
- H.P.C. Miranda, F.Naccarato, K. Persson, G.Petretto, V.Planes, Y.Pouillon,
- S.Prokhorenko, F.Ricci, G.-M.Rignanese, A.H.Romero, M.M.Schmitt, M.Torrent,
- M.J.van Setten, B.Van Troeye, M.J.Verstraete, G.Zerah and J.W.Zwanzig
- Comment: the fifth generic paper describing the ABINIT project.
- Note that a version of this paper, that is not formatted for Computer Phys. Comm. 
- is available at https://www.abinit.org/sites/default/files/ABINIT20.pdf .
- The licence allows the authors to put it on the Web.
- DOI and bibtex: see https://docs.abinit.org/theory/bibliography/#gonze2020
-
- [2] ABINIT: Overview, and focus on selected capabilities
- J. Chem. Phys. 152, 124102 (2020).
- A. Romero, D.C. Allan, B. Amadon, G. Antonius, T. Applencourt, L.Baguet,
- J.Bieder, F.Bottin, J.Bouchet, E.Bousquet, F.Bruneval,
- G.Brunin, D.Caliste, M.Cote,
- J.Denier, C. Dreyer, Ph.Ghosez, M.Giantomassi, Y.Gillet, O.Gingras,
- D.R.Hamann, G.Hautier, F.Jollet, G. Jomard,
- A.Martin, 
- H.P.C. Miranda, F.Naccarato, G.Petretto, N.A. Pike, V.Planes,
- S.Prokhorenko, T. Rangel, F.Ricci, G.-M.Rignanese, M.Royo, M.Stengel, M.Torrent,
- M.J.van Setten, B.Van Troeye, M.J.Verstraete, J.Wiktor, J.W.Zwanziger, and X.Gonze.
- Comment: a global overview of ABINIT, with focus on selected capabilities .
- Note that a version of this paper, that is not formatted for J. Chem. Phys 
- is available at https://www.abinit.org/sites/default/files/ABINIT20_JPC.pdf .
- The licence allows the authors to put it on the Web.
- DOI and bibtex: see https://docs.abinit.org/theory/bibliography/#romero2020
-
- [3] Recent developments in the ABINIT software package.
- Computer Phys. Comm. 205, 106 (2016).
- X.Gonze, F.Jollet, F.Abreu Araujo, D.Adams, B.Amadon, T.Applencourt,
- C.Audouze, J.-M.Beuken, J.Bieder, A.Bokhanchuk, E.Bousquet, F.Bruneval
- D.Caliste, M.Cote, F.Dahm, F.Da Pieve, M.Delaveau, M.Di Gennaro,
- B.Dorado, C.Espejo, G.Geneste, L.Genovese, A.Gerossier, M.Giantomassi,
- Y.Gillet, D.R.Hamann, L.He, G.Jomard, J.Laflamme Janssen, S.Le Roux,
- A.Levitt, A.Lherbier, F.Liu, I.Lukacevic, A.Martin, C.Martins,
- M.J.T.Oliveira, S.Ponce, Y.Pouillon, T.Rangel, G.-M.Rignanese,
- A.H.Romero, B.Rousseau, O.Rubel, A.A.Shukri, M.Stankovski, M.Torrent,
- M.J.Van Setten, B.Van Troeye, M.J.Verstraete, D.Waroquier, J.Wiktor,
- B.Xu, A.Zhou, J.W.Zwanziger.
- Comment: the fourth generic paper describing the ABINIT project.
- Note that a version of this paper, that is not formatted for Computer Phys. Comm. 
- is available at https://www.abinit.org/sites/default/files/ABINIT16.pdf .
- The licence allows the authors to put it on the Web.
- DOI and bibtex: see https://docs.abinit.org/theory/bibliography/#gonze2016
-
- And optionally:
-
- [4] ABINIT: First-principles approach of materials and nanosystem properties.
- Computer Phys. Comm. 180, 2582-2615 (2009).
- X. Gonze, B. Amadon, P.-M. Anglade, J.-M. Beuken, F. Bottin, P. Boulanger, F. Bruneval,
- D. Caliste, R. Caracas, M. Cote, T. Deutsch, L. Genovese, Ph. Ghosez, M. Giantomassi
- S. Goedecker, D.R. Hamann, P. Hermet, F. Jollet, G. Jomard, S. Leroux, M. Mancini, S. Mazevet,
- M.J.T. Oliveira, G. Onida, Y. Pouillon, T. Rangel, G.-M. Rignanese, D. Sangalli, R. Shaltaf,
- M. Torrent, M.J. Verstraete, G. Zerah, J.W. Zwanziger
- Comment: the third generic paper describing the ABINIT project.
- Note that a version of this paper, that is not formatted for Computer Phys. Comm. 
- is available at https://www.abinit.org/sites/default/files/ABINIT_CPC_v10.pdf .
- The licence allows the authors to put it on the Web.
- DOI and bibtex: see https://docs.abinit.org/theory/bibliography/#gonze2009
-
- Proc.   0 individual time (sec): cpu=          1.4  wall=         30.5

================================================================================

 Calculation completed.
.Delivered   1 WARNINGs and   5 COMMENTs to log file.
+Overall time at end (sec) : cpu=          1.4  wall=         30.5
