
.Version 9.6.2 of ABINIT 
.(MPI version, prepared for a x86_64_linux_gnu9.4 computer) 

.Copyright (C) 1998-2021 ABINIT group . 
 ABINIT comes with ABSOLUTELY NO WARRANTY.
 It is free software, and you are welcome to redistribute it
 under certain conditions (GNU General Public License,
 see ~abinit/COPYING or http://www.gnu.org/copyleft/gpl.txt).

 ABINIT is a project of the Universite Catholique de Louvain,
 Corning Inc. and other collaborators, see ~abinit/doc/developers/contributors.txt .
 Please read https://docs.abinit.org/theory/acknowledgments for suggested
 acknowledgments of the ABINIT effort.
 For more information, see https://www.abinit.org .

.Starting date : Thu 20 Oct 2022.
- ( at 19h46 )
  
- input  file    -> InAs.in
- output file    -> test.out
- root for input  files -> testi
- root for output files -> testo


 DATASET    1 : space group P1 (#  1); Bravais aP (primitive triclinic)
================================================================================
 Values of the parameters that define the memory need for DATASET  1.
     intxc =       0    ionmov =       0      iscf =       7    lmnmax =       1
     lnmax =       1     mgfft =      16  mpssoang =       2    mqgrid =    3001
     natom =       2  nloc_mem =       1    nspden =       1   nspinor =       1
    nsppol =       1      nsym =       1    n1xccc =    2501    ntypat =       2
    occopt =       1   xclevel =       1
-    mband =           5        mffmem =           1         mkmem =         128
       mpw =         153          nfft =        4096          nkpt =         128
================================================================================
P This job should need less than                       3.707 Mbytes of memory.
  Rough estimation (10% accuracy) of disk space for files :
_ WF disk file :      1.496 Mbytes ; DEN or POT disk file :      0.033 Mbytes.
================================================================================


 DATASET    2 : space group P1 (#  1); Bravais aP (primitive triclinic)
================================================================================
 Values of the parameters that define the memory need for DATASET  2.
     intxc =       0    ionmov =       0      iscf =      -2    lmnmax =       1
     lnmax =       1     mgfft =      16  mpssoang =       2    mqgrid =    3001
     natom =       2  nloc_mem =       1    nspden =       1   nspinor =       1
    nsppol =       1      nsym =       1    n1xccc =    2501    ntypat =       2
    occopt =       1   xclevel =       1
-    mband =           8        mffmem =           1         mkmem =          40
       mpw =         153          nfft =        4096          nkpt =          40
================================================================================
P This job should need less than                       2.259 Mbytes of memory.
  Rough estimation (10% accuracy) of disk space for files :
_ WF disk file :      0.749 Mbytes ; DEN or POT disk file :      0.033 Mbytes.
================================================================================

--------------------------------------------------------------------------------
------------- Echo of variables that govern the present computation ------------
--------------------------------------------------------------------------------
-
- outvars: echo of selected default values                                      
-   iomode0 =  0 , fftalg0 =112 , wfoptalg0 =  0
-
- outvars: echo of global parameters not present in the input file              
-  max_nthreads =    0
-
 -outvars: echo values of preprocessed input variables --------
            acell      1.1448527831E+01  1.1448527831E+01  1.1618603183E+01 Bohr
              amu      1.14820000E+02  7.49215900E+01
           diemac      1.20000000E+01
             ecut      4.00000000E+00 Hartree
           enunit1          0
           enunit2          1
-          fftalg         112
           getden1          0
           getden2         -1
             iscf1          7
             iscf2         -2
           istwfk2       1    0    0    0    0    0    0    0    0    0
                         1    0    0    0    0    0    0    0    0    0
                         0    0    0    0    0    0    0    0    0    0
                         0    0    0    0    0    0    0    0    0    0
                       outvar_i_n : Printing only first  50 k-points.
           jdtset        1    2
              kpt1    -1.25000000E-01 -2.50000000E-01  0.00000000E+00
                      -2.50000000E-01 -1.25000000E-01  0.00000000E+00
                      -1.25000000E-01 -1.25000000E-01  1.25000000E-01
                      -1.25000000E-01  5.00000000E-01  0.00000000E+00
                      -2.50000000E-01 -3.75000000E-01  0.00000000E+00
                      -1.25000000E-01 -3.75000000E-01  1.25000000E-01
                      -3.75000000E-01 -2.50000000E-01  0.00000000E+00
                      -2.50000000E-01 -2.50000000E-01  1.25000000E-01
                      -1.25000000E-01 -2.50000000E-01  2.50000000E-01
                       5.00000000E-01 -1.25000000E-01  0.00000000E+00
                      -3.75000000E-01 -1.25000000E-01  1.25000000E-01
                      -2.50000000E-01 -1.25000000E-01  2.50000000E-01
                      -1.25000000E-01 -1.25000000E-01  3.75000000E-01
                      -1.25000000E-01  2.50000000E-01  0.00000000E+00
                      -2.50000000E-01  3.75000000E-01  0.00000000E+00
                      -1.25000000E-01  3.75000000E-01  1.25000000E-01
                      -3.75000000E-01  5.00000000E-01  0.00000000E+00
                      -2.50000000E-01  5.00000000E-01  1.25000000E-01
                      -1.25000000E-01  5.00000000E-01  2.50000000E-01
                       5.00000000E-01 -3.75000000E-01  0.00000000E+00
                      -3.75000000E-01 -3.75000000E-01  1.25000000E-01
                      -2.50000000E-01 -3.75000000E-01  2.50000000E-01
                      -1.25000000E-01 -3.75000000E-01  3.75000000E-01
                       3.75000000E-01 -2.50000000E-01  0.00000000E+00
                       5.00000000E-01 -2.50000000E-01  1.25000000E-01
                      -3.75000000E-01 -2.50000000E-01  2.50000000E-01
                      -2.50000000E-01 -2.50000000E-01  3.75000000E-01
                      -1.25000000E-01 -2.50000000E-01  5.00000000E-01
                       2.50000000E-01 -1.25000000E-01  0.00000000E+00
                       3.75000000E-01 -1.25000000E-01  1.25000000E-01
                       5.00000000E-01 -1.25000000E-01  2.50000000E-01
                      -3.75000000E-01 -1.25000000E-01  3.75000000E-01
                      -2.50000000E-01 -1.25000000E-01  5.00000000E-01
                      -1.25000000E-01 -1.25000000E-01 -3.75000000E-01
                      -1.25000000E-01  0.00000000E+00  0.00000000E+00
                      -1.25000000E-01  1.25000000E-01  1.25000000E-01
                      -2.50000000E-01  2.50000000E-01  1.25000000E-01
                      -1.25000000E-01  2.50000000E-01  2.50000000E-01
                      -3.75000000E-01  3.75000000E-01  1.25000000E-01
                      -2.50000000E-01  3.75000000E-01  2.50000000E-01
                      -1.25000000E-01  3.75000000E-01  3.75000000E-01
                       5.00000000E-01  5.00000000E-01  1.25000000E-01
                      -3.75000000E-01  5.00000000E-01  2.50000000E-01
                      -2.50000000E-01  5.00000000E-01  3.75000000E-01
                      -1.25000000E-01  5.00000000E-01  5.00000000E-01
                       3.75000000E-01 -3.75000000E-01  1.25000000E-01
                       5.00000000E-01 -3.75000000E-01  2.50000000E-01
                      -3.75000000E-01 -3.75000000E-01  3.75000000E-01
                      -2.50000000E-01 -3.75000000E-01  5.00000000E-01
                      -1.25000000E-01 -3.75000000E-01 -3.75000000E-01
              kpt2     5.00000000E-01  0.00000000E+00  0.00000000E+00
                       4.50000000E-01  0.00000000E+00  0.00000000E+00
                       4.00000000E-01  0.00000000E+00  0.00000000E+00
                       3.50000000E-01  0.00000000E+00  0.00000000E+00
                       3.00000000E-01  0.00000000E+00  0.00000000E+00
                       2.50000000E-01  0.00000000E+00  0.00000000E+00
                       2.00000000E-01  0.00000000E+00  0.00000000E+00
                       1.50000000E-01  0.00000000E+00  0.00000000E+00
                       1.00000000E-01  0.00000000E+00  0.00000000E+00
                       5.00000000E-02  0.00000000E+00  0.00000000E+00
                       0.00000000E+00  0.00000000E+00  0.00000000E+00
                       2.08333333E-02  4.16666667E-02  6.25000000E-02
                       4.16666667E-02  8.33333333E-02  1.25000000E-01
                       6.25000000E-02  1.25000000E-01  1.87500000E-01
                       8.33333333E-02  1.66666667E-01  2.50000000E-01
                       1.04166667E-01  2.08333333E-01  3.12500000E-01
                       1.25000000E-01  2.50000000E-01  3.75000000E-01
                       1.45833333E-01  2.91666667E-01  4.37500000E-01
                       1.66666667E-01  3.33333333E-01  5.00000000E-01
                       1.87500000E-01  3.75000000E-01  5.62500000E-01
                       2.08333333E-01  4.16666667E-01  6.25000000E-01
                       2.29166667E-01  4.58333333E-01  6.87500000E-01
                       2.50000000E-01  5.00000000E-01  7.50000000E-01
                       2.57352941E-01  4.92647059E-01  7.50000000E-01
                       2.64705882E-01  4.85294118E-01  7.50000000E-01
                       2.72058824E-01  4.77941176E-01  7.50000000E-01
                       2.79411765E-01  4.70588235E-01  7.50000000E-01
                       2.86764706E-01  4.63235294E-01  7.50000000E-01
                       2.94117647E-01  4.55882353E-01  7.50000000E-01
                       3.01470588E-01  4.48529412E-01  7.50000000E-01
                       3.08823529E-01  4.41176471E-01  7.50000000E-01
                       3.16176471E-01  4.33823529E-01  7.50000000E-01
                       3.23529412E-01  4.26470588E-01  7.50000000E-01
                       3.30882353E-01  4.19117647E-01  7.50000000E-01
                       3.38235294E-01  4.11764706E-01  7.50000000E-01
                       3.45588235E-01  4.04411765E-01  7.50000000E-01
                       3.52941176E-01  3.97058824E-01  7.50000000E-01
                       3.60294118E-01  3.89705882E-01  7.50000000E-01
                       3.67647059E-01  3.82352941E-01  7.50000000E-01
                       3.75000000E-01  3.75000000E-01  7.50000000E-01
                       outvar_i_n : Printing only first  50 k-points.
           kptopt1          1
           kptopt2         -3
         kptrlatt        4   -4    4     -4    4    4     -4   -4    4
          kptrlen1     4.57966378E+01
          kptrlen2     3.00000000E+01
P           mkmem1        128
P           mkmem2         40
            natom           2
            nband1          5
            nband2          8
           nbdbuf1          0
           nbdbuf2          2
           ndtset           2
            ngfft          16      16      16
             nkpt1        128
             nkpt2         40
            nstep          20
             nsym           1
           ntypat           2
              occ      2.000000  2.000000  2.000000  2.000000  0.000000
            rprim      0.0000000000E+00  5.0000000000E-01  5.0000000000E-01
                       5.0000000000E-01  0.0000000000E+00  5.0000000000E-01
                       5.0000000000E-01  5.0000000000E-01  0.0000000000E+00
           shiftk      5.00000000E-01  5.00000000E-01  5.00000000E-01
          spgroup           1
           toldfe1     1.00000000E-06 Hartree
           toldfe2     0.00000000E+00 Hartree
           tolwfr1     0.00000000E+00
           tolwfr2     1.00000000E-12
            typat      1  2
              wtk1       0.00781    0.00781    0.00781    0.00781    0.00781    0.00781
                         0.00781    0.00781    0.00781    0.00781    0.00781    0.00781
                         0.00781    0.00781    0.00781    0.00781    0.00781    0.00781
                         0.00781    0.00781    0.00781    0.00781    0.00781    0.00781
                         0.00781    0.00781    0.00781    0.00781    0.00781    0.00781
                         0.00781    0.00781    0.00781    0.00781    0.00781    0.00781
                         0.00781    0.00781    0.00781    0.00781    0.00781    0.00781
                         0.00781    0.00781    0.00781    0.00781    0.00781    0.00781
                         0.00781    0.00781
              wtk2       1.00000    1.00000    1.00000    1.00000    1.00000    1.00000
                         1.00000    1.00000    1.00000    1.00000    1.00000    1.00000
                         1.00000    1.00000    1.00000    1.00000    1.00000    1.00000
                         1.00000    1.00000    1.00000    1.00000    1.00000    1.00000
                         1.00000    1.00000    1.00000    1.00000    1.00000    1.00000
                         1.00000    1.00000    1.00000    1.00000    1.00000    1.00000
                         1.00000    1.00000    1.00000    1.00000
                       outvars : Printing only first  50 k-points.
           xangst      0.0000000000E+00  0.0000000000E+00  0.0000000000E+00
                       1.5258250000E+00  1.5258250000E+00  1.5145750000E+00
            xcart      0.0000000000E+00  0.0000000000E+00  0.0000000000E+00
                       2.8833913767E+00  2.8833913767E+00  2.8621319577E+00
             xred      0.0000000000E+00  0.0000000000E+00  0.0000000000E+00
                       2.5000000000E-01  2.5000000000E-01  2.5000000000E-01
            znucl       49.00000   33.00000

================================================================================

 chkinp: Checking input parameters for consistency, jdtset=   1.

 chkinp: Checking input parameters for consistency, jdtset=   2.

================================================================================
== DATASET  1 ==================================================================
-   mpi_nproc: 1, omp_nthreads: -1 (-1 if OMP is not activated)


--- !DatasetInfo
iteration_state: {dtset: 1, }
dimensions: {natom: 2, nkpt: 128, mband: 5, nsppol: 1, nspinor: 1, nspden: 1, mpw: 153, }
cutoff_energies: {ecut:   4.0, pawecutdg:  -1.0, }
electrons: {nelect:   8.00000000E+00, charge:   0.00000000E+00, occopt:   1.00000000E+00, tsmear:   1.00000000E-02, }
meta: {optdriver: 0, ionmov: 0, optcell: 0, iscf: 7, paral_kgb: 0, }
...

 Exchange-correlation functional for the present dataset will be:
  LDA: new Teter (4/93) with spin-polarized option - ixc=1
 Citation for XC functional:
  S. Goedecker, M. Teter, J. Huetter, PRB 54, 1703 (1996)

 Real(R)+Recip(G) space primitive vectors, cartesian coordinates (Bohr,Bohr^-1):
 R(1)=  0.0000000  5.7242639  5.7242639  G(1)= -0.0873475  0.0873475  0.0873475
 R(2)=  5.7242639  0.0000000  5.7242639  G(2)=  0.0873475 -0.0873475  0.0873475
 R(3)=  5.8093016  5.8093016  0.0000000  G(3)=  0.0860689  0.0860689 -0.0860689
 Unit cell volume ucvol=  3.8070906E+02 bohr^3
 Angles (23,13,12)=  6.00000000E+01  6.00000000E+01  6.00000000E+01 degrees

 getcut: wavevector=  0.0000  0.0000  0.0000  ngfft=  16  16  16
         ecut(hartree)=      4.000   => boxcut(ratio)=   2.16327

--- Pseudopotential description ------------------------------------------------
- pspini: atom type   1  psp file is 49in.pspnc
- pspatm: opening atomic psp file    49in.pspnc
-  Troullier-Martins psp for element  In        Thu Oct 27 17:43:15 EDT 1994
- 49.00000   3.00000    940714                znucl, zion, pspdat
    1    1    1    0      2001   0.00000      pspcod,pspxc,lmax,lloc,mmax,r2well
    0   8.236  12.726    0   2.1883691        l,e99.0,e99.9,nproj,rcpsp
   0.00000000   0.00000000   0.00000000   0.00000000     rms, ekb1, ekb2, epsatm
    1   3.329   5.528    1   2.6396875        l,e99.0,e99.9,nproj,rcpsp
   0.00000000   0.00000000   0.00000000   0.00000000     rms, ekb1, ekb2, epsatm
    3.24177624483359    0.09532364101432    2.83397955305767   rchrg,fchrg,qchrg
  pspatm : epsatm=   39.73038112
         --- l  ekb(1:nproj) -->
             1    0.789729
 pspatm: atomic psp has been read  and splines computed

- pspini: atom type   2  psp file is 33as.pspnc
- pspatm: opening atomic psp file    33as.pspnc
-  Troullier-Martins psp for element  As        Thu Oct 27 17:37:14 EDT 1994
- 33.00000   5.00000    940714                znucl, zion, pspdat
    1    1    1    1      2001   0.00000      pspcod,pspxc,lmax,lloc,mmax,r2well
    0   4.772  10.829    1   2.5306160        l,e99.0,e99.9,nproj,rcpsp
   0.00000000   0.00000000   0.00000000   0.00000000     rms, ekb1, ekb2, epsatm
    1   2.745   5.580    0   2.5306160        l,e99.0,e99.9,nproj,rcpsp
   0.00000000   0.00000000   0.00000000   0.00000000     rms, ekb1, ekb2, epsatm
    2.05731715564010    0.36322996461007    2.76014815959125   rchrg,fchrg,qchrg
  pspatm : epsatm=   27.20579911
         --- l  ekb(1:nproj) -->
             0    0.838751
 pspatm: atomic psp has been read  and splines computed

   5.35489442E+02                                ecore*ucvol(ha*bohr**3)
--------------------------------------------------------------------------------

_setup2: Arith. and geom. avg. npw (full set) are     145.609     145.589

================================================================================

--- !BeginCycle
iteration_state: {dtset: 1, }
solver: {iscf: 7, nstep: 20, nline: 4, wfoptalg: 0, }
tolerances: {toldfe: 1.00E-06, }
...

     iter   Etot(hartree)      deltaE(h)  residm     vres2
 ETOT  1  -10.590840719704    -1.059E+01 9.905E-03 3.426E+00
 ETOT  2  -10.597488592002    -6.648E-03 3.776E-04 2.334E-01
 ETOT  3  -10.597791208805    -3.026E-04 1.462E-05 1.760E-02
 ETOT  4  -10.597817995810    -2.679E-05 1.253E-06 8.403E-04
 ETOT  5  -10.597818933020    -9.372E-07 1.363E-07 1.882E-06
 ETOT  6  -10.597818934422    -1.402E-09 9.671E-09 7.975E-08

 At SCF step    6, etot is converged : 
  for the second time, diff in etot=  1.402E-09 < toldfe=  1.000E-06

 Cartesian components of stress tensor (hartree/bohr^3)
  sigma(1 1)=  4.22521823E-04  sigma(3 2)= -8.95983435E-06
  sigma(2 2)=  4.22522141E-04  sigma(3 1)= -8.95835863E-06
  sigma(3 3)=  4.10789162E-04  sigma(2 1)=  1.86595436E-05


--- !ResultsGS
iteration_state: {dtset: 1, }
comment   : Summary of ground state results
lattice_vectors:
- [  0.0000000,   5.7242639,   5.7242639, ]
- [  5.7242639,   0.0000000,   5.7242639, ]
- [  5.8093016,   5.8093016,   0.0000000, ]
lattice_lengths: [   8.09533,    8.09533,    8.21559, ]
lattice_angles: [ 60.000,  60.000,  60.000, ] # degrees, (23, 13, 12)
lattice_volume:   3.8070906E+02
convergence: {deltae: -1.402E-09, res2:  7.975E-08, residm:  9.671E-09, diffor: null, }
etotal    :  -1.05978189E+01
entropy   :   0.00000000E+00
fermie    :  -6.67630863E-02
cartesian_stress_tensor: # hartree/bohr^3
- [  4.22521823E-04,   1.86595436E-05,  -8.95835863E-06, ]
- [  1.86595436E-05,   4.22522141E-04,  -8.95983435E-06, ]
- [ -8.95835863E-06,  -8.95983435E-06,   4.10789162E-04, ]
pressure_GPa:  -1.2316E+01
xred      :
- [  0.0000E+00,   0.0000E+00,   0.0000E+00, In]
- [  2.5000E-01,   2.5000E-01,   2.5000E-01, As]
cartesian_forces: # hartree/bohr
- [ -2.34980419E-04,  -2.34321090E-04,   5.47698027E-04, ]
- [  2.34980419E-04,   2.34321090E-04,  -5.47698027E-04, ]
force_length_stats: {min:   6.40386836E-04, max:   6.40386836E-04, mean:   6.40386836E-04, }
...

 Integrated electronic density in atomic spheres:
 ------------------------------------------------
 Atom  Sphere_radius  Integrated_density
    1        2.00000          0.63118359
    2        2.00000          2.40558498
================================================================================

 ----iterations are completed or convergence reached----

 Mean square residual over all n,k,spin=   24.344E-11; max=  96.709E-10
 reduced coordinates (array xred) for    2 atoms
       0.000000000000      0.000000000000      0.000000000000
       0.250000000000      0.250000000000      0.250000000000
 rms dE/dt=  2.1490E-03; max dE/dt=  2.7271E-03; dE/dt below (all hartree)
    1      -0.001793704715     -0.001790083219      0.002727087553
    2       0.001793999863      0.001790073015     -0.002725540459

 cartesian coordinates (angstrom) at end:
    1      0.00000000000000     0.00000000000000     0.00000000000000
    2      1.52582500000000     1.52582500000000     1.51457500000000

 cartesian forces (hartree/bohr) at end:
    1     -0.00023498041912    -0.00023432109038     0.00054769802676
    2      0.00023498041912     0.00023432109038    -0.00054769802676
 frms,max,avg= 3.6972751E-04 5.4769803E-04  -5.324E-08 -7.991E-08  5.413E-08 h/b

 cartesian forces (eV/Angstrom) at end:
    1     -0.01208317796083    -0.01204927391668     0.02816376254207
    2      0.01208317796083     0.01204927391668    -0.02816376254207
 frms,max,avg= 1.9012151E-02 2.8163763E-02  -2.738E-06 -4.109E-06  2.784E-06 e/A
 length scales= 11.448527830861 11.448527830861 11.618603182821 bohr
              =  6.058300000000  6.058300000000  6.148300000000 angstroms
 prteigrs : about to open file testo_DS1_EIG
 Fermi (or HOMO) energy (hartree) =  -0.06676   Average Vxc (hartree)=  -0.33116
 Eigenvalues (hartree) for nkpt= 128  k points:
 kpt#   1, nband=  5, wtk=  0.00781, kpt= -0.1250 -0.2500  0.0000 (reduced coord)
  -0.45256   -0.17224   -0.08963   -0.08855    0.02567
 prteigrs : prtvol=0 or 1, do not print more k-points.


--- !EnergyTerms
iteration_state     : {dtset: 1, }
comment             : Components of total free energy in Hartree
kinetic             :  2.73446437964169E+00
hartree             :  9.62840668450087E-01
xc                  : -4.88267425985523E+00
Ewald energy        : -7.81986441866884E+00
psp_core            :  1.40655816453055E+00
local_psp           : -3.18237320485476E+00
non_local_psp       :  1.83229736334484E-01
total_energy        : -1.05978189344220E+01
total_energy_eV     : -2.88381319103334E+02
band_energy         : -1.76959624056306E+00
...


 Cartesian components of stress tensor (hartree/bohr^3)
  sigma(1 1)=  4.22521823E-04  sigma(3 2)= -8.95983435E-06
  sigma(2 2)=  4.22522141E-04  sigma(3 1)= -8.95835863E-06
  sigma(3 3)=  4.10789162E-04  sigma(2 1)=  1.86595436E-05

-Cartesian components of stress tensor (GPa)         [Pressure= -1.2316E+01 GPa]
- sigma(1 1)=  1.24310191E+01  sigma(3 2)= -2.63607383E-01
- sigma(2 2)=  1.24310285E+01  sigma(3 1)= -2.63563966E-01
- sigma(3 3)=  1.20858324E+01  sigma(2 1)=  5.48982635E-01

================================================================================
== DATASET  2 ==================================================================
-   mpi_nproc: 1, omp_nthreads: -1 (-1 if OMP is not activated)


--- !DatasetInfo
iteration_state: {dtset: 2, }
dimensions: {natom: 2, nkpt: 40, mband: 8, nsppol: 1, nspinor: 1, nspden: 1, mpw: 153, }
cutoff_energies: {ecut:   4.0, pawecutdg:  -1.0, }
electrons: {nelect:   8.00000000E+00, charge:   0.00000000E+00, occopt:   1.00000000E+00, tsmear:   1.00000000E-02, }
meta: {optdriver: 0, ionmov: 0, optcell: 0, iscf: -2, paral_kgb: 0, }
...

 mkfilename : getden/=0, take file _DEN from output of DATASET   1.

 Exchange-correlation functional for the present dataset will be:
  LDA: new Teter (4/93) with spin-polarized option - ixc=1
 Citation for XC functional:
  S. Goedecker, M. Teter, J. Huetter, PRB 54, 1703 (1996)

 Real(R)+Recip(G) space primitive vectors, cartesian coordinates (Bohr,Bohr^-1):
 R(1)=  0.0000000  5.7242639  5.7242639  G(1)= -0.0873475  0.0873475  0.0873475
 R(2)=  5.7242639  0.0000000  5.7242639  G(2)=  0.0873475 -0.0873475  0.0873475
 R(3)=  5.8093016  5.8093016  0.0000000  G(3)=  0.0860689  0.0860689 -0.0860689
 Unit cell volume ucvol=  3.8070906E+02 bohr^3
 Angles (23,13,12)=  6.00000000E+01  6.00000000E+01  6.00000000E+01 degrees

 getcut: wavevector=  0.0000  0.0000  0.0000  ngfft=  16  16  16
         ecut(hartree)=      4.000   => boxcut(ratio)=   2.16327
--------------------------------------------------------------------------------


================================================================================
 prteigrs : about to open file testo_DS2_EIG
 Non-SCF case, kpt    1 (  0.50000  0.00000  0.00000), residuals and eigenvalues=
  1.51E-13  7.28E-14  1.52E-13  6.05E-13  4.35E-13  8.12E-13  1.82E-13  3.01E-10
 -4.2677E-01 -2.4883E-01 -8.7808E-02 -8.6130E-02 -1.9420E-02  9.7930E-02
  1.0419E-01  1.8887E-01
  prteigrs : nnsclo,ikpt=   20    1 max resid (incl. the buffer)=  3.00504E-10
 Non-SCF case, kpt    2 (  0.45000  0.00000  0.00000), residuals and eigenvalues=
  1.11E-13  3.77E-13  6.39E-13  1.70E-13  9.32E-13  4.31E-13  5.91E-13  9.16E-10
 -4.2852E-01 -2.4636E-01 -8.7386E-02 -8.5713E-02 -1.9907E-02  9.8574E-02
  1.0477E-01  1.8798E-01
  prteigrs : nnsclo,ikpt=   20    2 max resid (incl. the buffer)=  9.16379E-10
 Non-SCF case, kpt    3 (  0.40000  0.00000  0.00000), residuals and eigenvalues=
  2.25E-13  1.91E-13  9.88E-13  3.94E-13  6.97E-13  8.53E-14  1.14E-13  4.77E-09
 -4.3251E-01 -2.3741E-01 -8.6097E-02 -8.4416E-02 -1.7690E-02  1.0055E-01
  1.0670E-01  1.8391E-01
  prteigrs : nnsclo,ikpt=   20    3 max resid (incl. the buffer)=  4.77384E-09
 Non-SCF case, kpt    4 (  0.35000  0.00000  0.00000), residuals and eigenvalues=
  5.27E-13  6.34E-13  6.45E-13  2.62E-13  2.55E-13  1.21E-13  5.29E-13  5.53E-10
 -4.3817E-01 -2.2339E-01 -8.4028E-02 -8.2271E-02 -1.4076E-02  1.0325E-01
  1.0937E-01  1.7263E-01
  prteigrs : nnsclo,ikpt=   20    4 max resid (incl. the buffer)=  5.52885E-10
 Non-SCF case, kpt    5 (  0.30000  0.00000  0.00000), residuals and eigenvalues=
  9.06E-13  4.50E-13  8.58E-14  7.08E-13  7.28E-13  4.58E-13  4.85E-13  2.97E-10
 -4.4485E-01 -2.0543E-01 -8.1284E-02 -7.9477E-02 -9.6760E-03  1.0565E-01
  1.1172E-01  1.5354E-01
  prteigrs : nnsclo,ikpt=   20    5 max resid (incl. the buffer)=  2.97081E-10
 Non-SCF case, kpt    6 (  0.25000  0.00000  0.00000), residuals and eigenvalues=
  1.41E-13  8.32E-13  8.82E-13  3.27E-13  1.95E-13  2.17E-13  7.82E-13  1.52E-11
 -4.5176E-01 -1.8448E-01 -7.7987E-02 -7.6225E-02 -5.5044E-03  1.0633E-01
  1.1220E-01  1.3160E-01
  prteigrs : nnsclo,ikpt=   20    6 max resid (incl. the buffer)=  1.51539E-11
 Non-SCF case, kpt    7 (  0.20000  0.00000  0.00000), residuals and eigenvalues=
  1.40E-13  3.49E-13  1.06E-13  8.70E-13  8.04E-13  5.94E-13  1.51E-13  8.37E-13
 -4.5764E-01 -1.6131E-01 -7.4364E-02 -7.2561E-02 -3.4549E-03  1.0414E-01
  1.0988E-01  1.1191E-01
 Non-SCF case, kpt    8 (  0.15000  0.00000  0.00000), residuals and eigenvalues=
  4.04E-13  2.22E-13  2.81E-13  1.43E-13  7.94E-13  1.51E-13  3.57E-13  3.81E-13
 -4.6295E-01 -1.3664E-01 -7.0781E-02 -6.8937E-02 -6.8883E-03  9.7641E-02
  9.9719E-02  1.0515E-01
 Non-SCF case, kpt    9 (  0.10000  0.00000  0.00000), residuals and eigenvalues=
  7.49E-13  3.05E-13  5.69E-13  2.48E-13  2.45E-13  5.63E-13  4.74E-13  2.02E-13
 -4.6659E-01 -1.1107E-01 -6.7666E-02 -6.5789E-02 -1.8383E-02  9.2160E-02
  9.4506E-02  9.9705E-02
 Non-SCF case, kpt   10 (  0.05000  0.00000  0.00000), residuals and eigenvalues=
  2.85E-13  3.51E-13  6.44E-14  7.46E-13  2.77E-13  8.85E-13  7.84E-13  8.03E-13
 -4.6866E-01 -8.5276E-02 -6.5534E-02 -6.3532E-02 -3.6777E-02  8.9307E-02
  9.3453E-02  9.6141E-02
 Non-SCF case, kpt   11 (  0.00000  0.00000  0.00000), residuals and eigenvalues=
  2.67E-13  1.35E-13  1.91E-13  7.01E-13  6.03E-13  1.20E-13  3.16E-13  9.87E-14
 -4.6880E-01 -6.4879E-02 -6.2979E-02 -6.2628E-02 -5.5601E-02  8.8130E-02
  9.3978E-02  9.6119E-02
 Non-SCF case, kpt   12 (  0.02083  0.04167  0.06250), residuals and eigenvalues=
  7.64E-13  2.24E-13  6.44E-13  1.35E-13  1.77E-13  1.91E-13  7.32E-13  7.45E-13
 -4.6820E-01 -8.7272E-02 -6.5087E-02 -6.4032E-02 -3.4040E-02  8.6870E-02
  9.5959E-02  9.7413E-02
 Non-SCF case, kpt   13 (  0.04167  0.08333  0.12500), residuals and eigenvalues=
  1.65E-13  1.56E-13  3.92E-13  3.86E-13  3.48E-13  5.42E-13  1.09E-11  1.14E-11
 -4.6602E-01 -1.1356E-01 -7.1597E-02 -6.6832E-02 -1.0419E-02  8.1022E-02
  1.0210E-01  1.0498E-01
  prteigrs : nnsclo,ikpt=   20   13 max resid (incl. the buffer)=  1.13922E-11
 Non-SCF case, kpt   14 (  0.06250  0.12500  0.18750), residuals and eigenvalues=
  2.04E-13  6.95E-13  1.03E-13  3.47E-13  7.97E-14  3.50E-13  3.47E-11  1.71E-10
 -4.6201E-01 -1.3857E-01 -8.1425E-02 -7.1022E-02  1.0604E-02  7.4053E-02
  1.1213E-01  1.1700E-01
  prteigrs : nnsclo,ikpt=   20   14 max resid (incl. the buffer)=  1.71036E-10
 Non-SCF case, kpt   15 (  0.08333  0.16667  0.25000), residuals and eigenvalues=
  2.28E-13  7.10E-14  6.20E-13  3.40E-13  2.87E-13  8.93E-13  3.20E-08  3.13E-08
 -4.5621E-01 -1.6179E-01 -9.3436E-02 -7.6530E-02  2.7895E-02  6.8478E-02
  1.2500E-01  1.2670E-01
  prteigrs : nnsclo,ikpt=   20   15 max resid (incl. the buffer)=  3.20035E-08
 Non-SCF case, kpt   16 (  0.10417  0.20833  0.31250), residuals and eigenvalues=
  2.84E-13  2.61E-13  5.27E-14  1.15E-13  4.68E-13  3.47E-13  2.26E-10  1.24E-08
 -4.4905E-01 -1.8291E-01 -1.0649E-01 -8.3232E-02  4.1045E-02  6.5166E-02
  1.2564E-01  1.4121E-01
  prteigrs : nnsclo,ikpt=   20   16 max resid (incl. the buffer)=  1.24251E-08
 Non-SCF case, kpt   17 (  0.12500  0.25000  0.37500), residuals and eigenvalues=
  1.74E-13  1.20E-13  8.44E-14  1.81E-13  8.90E-13  4.70E-13  2.82E-10  2.61E-07
 -4.4130E-01 -2.0147E-01 -1.1952E-01 -9.1146E-02  5.0092E-02  6.4519E-02
  1.1987E-01  1.5932E-01
  prteigrs : nnsclo,ikpt=   20   17 max resid (incl. the buffer)=  2.60566E-07
 Non-SCF case, kpt   18 (  0.14583  0.29167  0.43750), residuals and eigenvalues=
  5.01E-13  8.52E-14  4.30E-13  1.97E-13  6.54E-13  3.00E-13  1.50E-11  1.34E-06
 -4.3352E-01 -2.1711E-01 -1.3161E-01 -1.0016E-01  5.5628E-02  6.6712E-02
  1.1557E-01  1.7952E-01
  prteigrs : nnsclo,ikpt=   20   18 max resid (incl. the buffer)=  1.34446E-06
 Non-SCF case, kpt   19 (  0.16667  0.33333  0.50000), residuals and eigenvalues=
  2.18E-13  6.70E-14  7.92E-13  6.83E-13  2.44E-13  4.73E-13  4.01E-11  9.15E-06
 -4.2615E-01 -2.2964E-01 -1.4205E-01 -1.0996E-01  5.9249E-02  7.1480E-02
  1.1433E-01  2.0163E-01
  prteigrs : nnsclo,ikpt=   20   19 max resid (incl. the buffer)=  9.15476E-06
 Non-SCF case, kpt   20 (  0.18750  0.37500  0.56250), residuals and eigenvalues=
  9.69E-14  5.37E-13  5.57E-13  5.44E-13  5.36E-13  8.26E-13  1.90E-11  4.90E-06
 -4.1969E-01 -2.3847E-01 -1.4986E-01 -1.2008E-01  6.3209E-02  7.8579E-02
  1.1589E-01  2.2111E-01
  prteigrs : nnsclo,ikpt=   20   20 max resid (incl. the buffer)=  4.89876E-06
 Non-SCF case, kpt   21 (  0.20833  0.41667  0.62500), residuals and eigenvalues=
  1.76E-13  5.60E-13  6.01E-13  4.52E-14  8.86E-13  9.78E-14  1.23E-12  8.95E-08
 -4.1498E-01 -2.4415E-01 -1.5454E-01 -1.2992E-01  6.8392E-02  8.6939E-02
  1.1972E-01  1.9044E-01
  prteigrs : nnsclo,ikpt=   20   21 max resid (incl. the buffer)=  8.94781E-08
 Non-SCF case, kpt   22 (  0.22917  0.45833  0.68750), residuals and eigenvalues=
  1.45E-13  5.37E-13  1.72E-13  1.26E-13  1.33E-13  4.07E-13  2.77E-13  1.04E-10
 -4.1190E-01 -2.4687E-01 -1.5529E-01 -1.3854E-01  7.4647E-02  9.5372E-02
  1.2428E-01  1.5957E-01
  prteigrs : nnsclo,ikpt=   20   22 max resid (incl. the buffer)=  1.03881E-10
 Non-SCF case, kpt   23 (  0.25000  0.50000  0.75000), residuals and eigenvalues=
  5.86E-14  4.81E-13  7.57E-13  3.93E-13  1.51E-13  1.70E-13  2.67E-13  9.47E-13
 -4.1054E-01 -2.4740E-01 -1.5396E-01 -1.4329E-01  7.7961E-02  9.8646E-02
  1.2501E-01  1.4857E-01
 Non-SCF case, kpt   24 (  0.25735  0.49265  0.75000), residuals and eigenvalues=
  1.44E-13  2.16E-13  7.58E-13  5.96E-13  3.44E-13  3.03E-13  3.33E-12  3.18E-12
 -4.1070E-01 -2.4738E-01 -1.5410E-01 -1.4306E-01  7.7516E-02  9.7895E-02
  1.2561E-01  1.4927E-01
  prteigrs : nnsclo,ikpt=   20   24 max resid (incl. the buffer)=  3.32574E-12
 Non-SCF case, kpt   25 (  0.26471  0.48529  0.75000), residuals and eigenvalues=
  1.25E-13  2.39E-13  8.89E-13  8.56E-13  5.85E-13  2.23E-13  4.94E-12  9.11E-12
 -4.1080E-01 -2.4732E-01 -1.5442E-01 -1.4227E-01  7.5691E-02  9.6393E-02
  1.2748E-01  1.5144E-01
  prteigrs : nnsclo,ikpt=   20   25 max resid (incl. the buffer)=  9.11083E-12
 Non-SCF case, kpt   26 (  0.27206  0.47794  0.75000), residuals and eigenvalues=
  1.57E-13  2.18E-13  1.68E-13  7.61E-13  3.28E-13  5.68E-13  1.18E-12  2.26E-12
 -4.1098E-01 -2.4735E-01 -1.5493E-01 -1.4100E-01  7.2379E-02  9.4742E-02
  1.3032E-01  1.5461E-01
  prteigrs : nnsclo,ikpt=   20   26 max resid (incl. the buffer)=  2.25882E-12
 Non-SCF case, kpt   27 (  0.27941  0.47059  0.75000), residuals and eigenvalues=
  1.72E-13  2.29E-13  1.78E-13  2.04E-13  2.60E-13  5.89E-13  1.75E-12  1.11E-11
 -4.1114E-01 -2.4732E-01 -1.5555E-01 -1.3930E-01  6.7798E-02  9.3382E-02
  1.3412E-01  1.5845E-01
  prteigrs : nnsclo,ikpt=   20   27 max resid (incl. the buffer)=  1.11131E-11
 Non-SCF case, kpt   28 (  0.28676  0.46324  0.75000), residuals and eigenvalues=
  3.93E-14  8.43E-13  2.16E-13  3.72E-13  4.55E-13  8.83E-13  3.49E-12  6.42E-11
 -4.1141E-01 -2.4735E-01 -1.5624E-01 -1.3729E-01  6.2358E-02  9.2249E-02
  1.3847E-01  1.6275E-01
  prteigrs : nnsclo,ikpt=   20   28 max resid (incl. the buffer)=  6.42140E-11
 Non-SCF case, kpt   29 (  0.29412  0.45588  0.75000), residuals and eigenvalues=
  2.73E-13  2.74E-13  8.57E-13  6.09E-13  6.64E-13  4.10E-13  7.76E-13  2.40E-12
 -4.1169E-01 -2.4741E-01 -1.5696E-01 -1.3502E-01  5.6469E-02  9.1346E-02
  1.4324E-01  1.6738E-01
  prteigrs : nnsclo,ikpt=   20   29 max resid (incl. the buffer)=  2.40483E-12
 Non-SCF case, kpt   30 (  0.30147  0.44853  0.75000), residuals and eigenvalues=
  3.97E-13  3.20E-13  6.04E-14  6.99E-13  2.44E-13  4.83E-13  1.32E-12  1.48E-11
 -4.1198E-01 -2.4749E-01 -1.5768E-01 -1.3255E-01  5.0423E-02  9.0610E-02
  1.4834E-01  1.7216E-01
  prteigrs : nnsclo,ikpt=   20   30 max resid (incl. the buffer)=  1.47504E-11
 Non-SCF case, kpt   31 (  0.30882  0.44118  0.75000), residuals and eigenvalues=
  1.36E-13  4.43E-13  3.75E-13  3.30E-13  5.25E-13  5.22E-13  6.20E-12  1.45E-10
 -4.1205E-01 -2.4746E-01 -1.5833E-01 -1.2990E-01  4.4466E-02  9.0045E-02
  1.5373E-01  1.7735E-01
  prteigrs : nnsclo,ikpt=   20   31 max resid (incl. the buffer)=  1.44591E-10
 Non-SCF case, kpt   32 (  0.31618  0.43382  0.75000), residuals and eigenvalues=
  6.72E-14  7.80E-13  5.85E-14  5.66E-13  5.87E-13  2.69E-13  2.42E-12  2.49E-09
 -4.1203E-01 -2.4740E-01 -1.5892E-01 -1.2715E-01  3.8716E-02  8.9585E-02
  1.5934E-01  1.8267E-01
  prteigrs : nnsclo,ikpt=   20   32 max resid (incl. the buffer)=  2.49384E-09
 Non-SCF case, kpt   33 (  0.32353  0.42647  0.75000), residuals and eigenvalues=
  3.73E-14  3.71E-13  4.36E-13  3.97E-13  4.00E-13  9.13E-13  1.46E-10  2.08E-10
 -4.1201E-01 -2.4734E-01 -1.5947E-01 -1.2445E-01  3.3295E-02  8.9216E-02
  1.6506E-01  1.8782E-01
  prteigrs : nnsclo,ikpt=   20   33 max resid (incl. the buffer)=  2.08366E-10
 Non-SCF case, kpt   34 (  0.33088  0.41912  0.75000), residuals and eigenvalues=
  4.43E-14  4.50E-13  5.53E-13  4.87E-13  5.03E-13  3.54E-13  1.08E-09  1.01E-09
 -4.1217E-01 -2.4740E-01 -1.5996E-01 -1.2189E-01  2.8287E-02  8.8792E-02
  1.7089E-01  1.9277E-01
  prteigrs : nnsclo,ikpt=   20   34 max resid (incl. the buffer)=  1.08138E-09
 Non-SCF case, kpt   35 (  0.33824  0.41176  0.75000), residuals and eigenvalues=
  8.35E-14  3.30E-13  9.84E-13  7.41E-13  1.31E-13  6.78E-13  3.93E-09  1.96E-06
 -4.1222E-01 -2.4740E-01 -1.6037E-01 -1.1949E-01  2.3821E-02  8.8491E-02
  1.7692E-01  1.9751E-01
  prteigrs : nnsclo,ikpt=   20   35 max resid (incl. the buffer)=  1.96430E-06
 Non-SCF case, kpt   36 (  0.34559  0.40441  0.75000), residuals and eigenvalues=
  2.13E-13  1.15E-13  4.34E-13  5.86E-13  9.75E-13  4.83E-13  5.19E-09  5.58E-07
 -4.1229E-01 -2.4737E-01 -1.6070E-01 -1.1736E-01  2.0022E-02  8.8224E-02
  1.8302E-01  2.0191E-01
  prteigrs : nnsclo,ikpt=   20   36 max resid (incl. the buffer)=  5.58112E-07
 Non-SCF case, kpt   37 (  0.35294  0.39706  0.75000), residuals and eigenvalues=
  1.65E-13  9.17E-14  4.15E-13  6.49E-13  7.39E-13  3.68E-13  7.51E-08  2.34E-06
 -4.1238E-01 -2.4741E-01 -1.6098E-01 -1.1559E-01  1.6912E-02  8.7988E-02
  1.8908E-01  2.0575E-01
  prteigrs : nnsclo,ikpt=   20   37 max resid (incl. the buffer)=  2.33622E-06
 Non-SCF case, kpt   38 (  0.36029  0.38971  0.75000), residuals and eigenvalues=
  8.00E-13  2.93E-13  8.96E-13  9.09E-13  1.34E-13  3.96E-13  1.53E-07  8.09E-06
 -4.1231E-01 -2.4730E-01 -1.6113E-01 -1.1422E-01  1.4672E-02  8.7887E-02
  1.9525E-01  2.0890E-01
  prteigrs : nnsclo,ikpt=   20   38 max resid (incl. the buffer)=  8.08576E-06
 Non-SCF case, kpt   39 (  0.36765  0.38235  0.75000), residuals and eigenvalues=
  4.50E-14  1.74E-13  8.98E-13  5.35E-13  1.05E-13  4.52E-13  4.50E-06  1.77E-05
 -4.1235E-01 -2.4732E-01 -1.6125E-01 -1.1339E-01  1.3264E-02  8.7784E-02
  2.0132E-01  2.1038E-01
  prteigrs : nnsclo,ikpt=   20   39 max resid (incl. the buffer)=  1.76726E-05
 Non-SCF case, kpt   40 (  0.37500  0.37500  0.75000), residuals and eigenvalues=
  5.06E-13  5.78E-13  6.84E-13  2.32E-13  3.47E-13  4.85E-13  9.93E-08  5.19E-05
 -4.1237E-01 -2.4734E-01 -1.6130E-01 -1.1310E-01  1.2779E-02  8.7780E-02
  2.0695E-01  2.0761E-01
  prteigrs : nnsclo,ikpt=   20   40 max resid (incl. the buffer)=  5.18999E-05


--- !ResultsGS
iteration_state: {dtset: 2, }
comment   : Summary of ground state results
lattice_vectors:
- [  0.0000000,   5.7242639,   5.7242639, ]
- [  5.7242639,   0.0000000,   5.7242639, ]
- [  5.8093016,   5.8093016,   0.0000000, ]
lattice_lengths: [   8.09533,    8.09533,    8.21559, ]
lattice_angles: [ 60.000,  60.000,  60.000, ] # degrees, (23, 13, 12)
lattice_volume:   3.8070906E+02
convergence: {deltae:  0.000E+00, res2:  0.000E+00, residm:  9.878E-13, diffor:  0.000E+00, }
etotal    :  -1.05978189E+01
entropy   :   0.00000000E+00
fermie    :  -6.67630863E-02
cartesian_stress_tensor: null
pressure_GPa: null
xred      :
- [  0.0000E+00,   0.0000E+00,   0.0000E+00, In]
- [  2.5000E-01,   2.5000E-01,   2.5000E-01, As]
cartesian_forces: null
force_length_stats: {min: null, max: null, mean: null, }
...

 Integrated electronic density in atomic spheres:
 ------------------------------------------------
 Atom  Sphere_radius  Integrated_density
    1        2.00000          0.63118359
    2        2.00000          2.40558498
================================================================================

 ----iterations are completed or convergence reached----

 Mean square residual over all n,k,spin=   40.373E-14; max=  98.784E-14
 reduced coordinates (array xred) for    2 atoms
       0.000000000000      0.000000000000      0.000000000000
       0.250000000000      0.250000000000      0.250000000000

 cartesian coordinates (angstrom) at end:
    1      0.00000000000000     0.00000000000000     0.00000000000000
    2      1.52582500000000     1.52582500000000     1.51457500000000
 length scales= 11.448527830861 11.448527830861 11.618603182821 bohr
              =  6.058300000000  6.058300000000  6.148300000000 angstroms
 prteigrs : about to open file testo_DS2_EIG
 Eigenvalues (   eV  ) for nkpt=  40  k points:
 kpt#   1, nband=  8, wtk=  1.00000, kpt=  0.5000  0.0000  0.0000 (reduced coord)
 -11.61299   -6.77112   -2.38937   -2.34372   -0.52845    2.66481    2.83527    5.13939
 kpt#   2, nband=  8, wtk=  1.00000, kpt=  0.4500  0.0000  0.0000 (reduced coord)
 -11.66068   -6.70367   -2.37788   -2.33236   -0.54169    2.68232    2.85099    5.11516
 kpt#   3, nband=  8, wtk=  1.00000, kpt=  0.4000  0.0000  0.0000 (reduced coord)
 -11.76927   -6.46023   -2.34281   -2.29707   -0.48137    2.73618    2.90349    5.00444
 kpt#   4, nband=  8, wtk=  1.00000, kpt=  0.3500  0.0000  0.0000 (reduced coord)
 -11.92315   -6.07865   -2.28651   -2.23872   -0.38303    2.80954    2.97623    4.69761
 kpt#   5, nband=  8, wtk=  1.00000, kpt=  0.3000  0.0000  0.0000 (reduced coord)
 -12.10490   -5.59006   -2.21185   -2.16268   -0.26330    2.87475    3.04003    4.17806
 kpt#   6, nband=  8, wtk=  1.00000, kpt=  0.2500  0.0000  0.0000 (reduced coord)
 -12.29302   -5.02004   -2.12214   -2.07418   -0.14978    2.89347    3.05299    3.58104
 kpt#   7, nband=  8, wtk=  1.00000, kpt=  0.2000  0.0000  0.0000 (reduced coord)
 -12.45293   -4.38954   -2.02355   -1.97448   -0.09401    2.83390    2.99008    3.04532
 kpt#   8, nband=  8, wtk=  1.00000, kpt=  0.1500  0.0000  0.0000 (reduced coord)
 -12.59745   -3.71815   -1.92604   -1.87587   -0.18744    2.65695    2.71348    2.86130
 kpt#   9, nband=  8, wtk=  1.00000, kpt=  0.1000  0.0000  0.0000 (reduced coord)
 -12.69657   -3.02243   -1.84128   -1.79021   -0.50023    2.50779    2.57163    2.71311
 kpt#  10, nband=  8, wtk=  1.00000, kpt=  0.0500  0.0000  0.0000 (reduced coord)
 -12.75298   -2.32049   -1.78327   -1.72879   -1.00075    2.43018    2.54297    2.61612
 kpt#  11, nband=  8, wtk=  1.00000, kpt=  0.0000  0.0000  0.0000 (reduced coord)
 -12.75656   -1.76544   -1.71373   -1.70421   -1.51299    2.39815    2.55727    2.61554
 kpt#  12, nband=  8, wtk=  1.00000, kpt=  0.0208  0.0417  0.0625 (reduced coord)
 -12.74031   -2.37480   -1.77112   -1.74239   -0.92629    2.36386    2.61118    2.65073
 kpt#  13, nband=  8, wtk=  1.00000, kpt=  0.0417  0.0833  0.1250 (reduced coord)
 -12.68098   -3.09000   -1.94825   -1.81860   -0.28352    2.20473    2.77826    2.85673
 kpt#  14, nband=  8, wtk=  1.00000, kpt=  0.0625  0.1250  0.1875 (reduced coord)
 -12.57193   -3.77056   -2.21568   -1.93262    0.28856    2.01507    3.05128    3.18385
 kpt#  15, nband=  8, wtk=  1.00000, kpt=  0.0833  0.1667  0.2500 (reduced coord)
 -12.41397   -4.40249   -2.54252   -2.08249    0.75905    1.86338    3.40148    3.44775
 kpt#  16, nband=  8, wtk=  1.00000, kpt=  0.1042  0.2083  0.3125 (reduced coord)
 -12.21916   -4.97710   -2.89783   -2.26485    1.11690    1.77327    3.41879    3.84242
 kpt#  17, nband=  8, wtk=  1.00000, kpt=  0.1250  0.2500  0.3750 (reduced coord)
 -12.00849   -5.48218   -3.25228   -2.48020    1.36306    1.75564    3.26177    4.33541
 kpt#  18, nband=  8, wtk=  1.00000, kpt=  0.1458  0.2917  0.4375 (reduced coord)
 -11.79672   -5.90773   -3.58141   -2.72544    1.51372    1.81534    3.14493    4.88493
 kpt#  19, nband=  8, wtk=  1.00000, kpt=  0.1667  0.3333  0.5000 (reduced coord)
 -11.59620   -6.24871   -3.86529   -2.99213    1.61225    1.94507    3.11119    5.48652
 kpt#  20, nband=  8, wtk=  1.00000, kpt=  0.1875  0.3750  0.5625 (reduced coord)
 -11.42039   -6.48903   -4.07789   -3.26756    1.71999    2.13824    3.15360    6.01680
 kpt#  21, nband=  8, wtk=  1.00000, kpt=  0.2083  0.4167  0.6250 (reduced coord)
 -11.29228   -6.64369   -4.20517   -3.53520    1.86105    2.36573    3.25766    5.18224
 kpt#  22, nband=  8, wtk=  1.00000, kpt=  0.2292  0.4583  0.6875 (reduced coord)
 -11.20842   -6.71757   -4.22576   -3.76986    2.03125    2.59521    3.38176    4.34204
 kpt#  23, nband=  8, wtk=  1.00000, kpt=  0.2500  0.5000  0.7500 (reduced coord)
 -11.17146   -6.73199   -4.18945   -3.89923    2.12143    2.68428    3.40171    4.04290
 kpt#  24, nband=  8, wtk=  1.00000, kpt=  0.2574  0.4926  0.7500 (reduced coord)
 -11.17574   -6.73167   -4.19319   -3.89278    2.10932    2.66385    3.41807    4.06190
 kpt#  25, nband=  8, wtk=  1.00000, kpt=  0.2647  0.4853  0.7500 (reduced coord)
 -11.17837   -6.72981   -4.20207   -3.87128    2.05964    2.62298    3.46897    4.12100
 kpt#  26, nband=  8, wtk=  1.00000, kpt=  0.2721  0.4779  0.7500 (reduced coord)
 -11.18347   -6.73071   -4.21587   -3.83676    1.96952    2.57806    3.54613    4.20711
 kpt#  27, nband=  8, wtk=  1.00000, kpt=  0.2794  0.4706  0.7500 (reduced coord)
 -11.18755   -6.72980   -4.23278   -3.79055    1.84489    2.54104    3.64951    4.31155
 kpt#  28, nband=  8, wtk=  1.00000, kpt=  0.2868  0.4632  0.7500 (reduced coord)
 -11.19495   -6.73086   -4.25163   -3.73592    1.69685    2.51021    3.76802    4.42866
 kpt#  29, nband=  8, wtk=  1.00000, kpt=  0.2941  0.4559  0.7500 (reduced coord)
 -11.20268   -6.73239   -4.27101   -3.67422    1.53659    2.48565    3.89786    4.55458
 kpt#  30, nband=  8, wtk=  1.00000, kpt=  0.3015  0.4485  0.7500 (reduced coord)
 -11.21047   -6.73451   -4.29058   -3.60678    1.37207    2.46561    4.03662    4.68479
 kpt#  31, nband=  8, wtk=  1.00000, kpt=  0.3088  0.4412  0.7500 (reduced coord)
 -11.21254   -6.73375   -4.30826   -3.53472    1.20999    2.45024    4.18324    4.82593
 kpt#  32, nband=  8, wtk=  1.00000, kpt=  0.3162  0.4338  0.7500 (reduced coord)
 -11.21195   -6.73198   -4.32453   -3.45995    1.05350    2.43773    4.33573    4.97083
 kpt#  33, nband=  8, wtk=  1.00000, kpt=  0.3235  0.4265  0.7500 (reduced coord)
 -11.21134   -6.73040   -4.33935   -3.38639    0.90600    2.42770    4.49147    5.11088
 kpt#  34, nband=  8, wtk=  1.00000, kpt=  0.3309  0.4191  0.7500 (reduced coord)
 -11.21559   -6.73202   -4.35273   -3.31688    0.76973    2.41616    4.65019    5.24542
 kpt#  35, nband=  8, wtk=  1.00000, kpt=  0.3382  0.4118  0.7500 (reduced coord)
 -11.21715   -6.73197   -4.36396   -3.25139    0.64819    2.40795    4.81412    5.37462
 kpt#  36, nband=  8, wtk=  1.00000, kpt=  0.3456  0.4044  0.7500 (reduced coord)
 -11.21890   -6.73130   -4.37300   -3.19342    0.54482    2.40069    4.98021    5.49424
 kpt#  37, nband=  8, wtk=  1.00000, kpt=  0.3529  0.3971  0.7500 (reduced coord)
 -11.22142   -6.73246   -4.38044   -3.14535    0.46020    2.39428    5.14500    5.59875
 kpt#  38, nband=  8, wtk=  1.00000, kpt=  0.3603  0.3897  0.7500 (reduced coord)
 -11.21955   -6.72943   -4.38460   -3.10820    0.39924    2.39152    5.31308    5.68438
 kpt#  39, nband=  8, wtk=  1.00000, kpt=  0.3676  0.3824  0.7500 (reduced coord)
 -11.22066   -6.72996   -4.38781   -3.08560    0.36093    2.38872    5.47806    5.72470
 kpt#  40, nband=  8, wtk=  1.00000, kpt=  0.3750  0.3750  0.7500 (reduced coord)
 -11.22105   -6.73049   -4.38928   -3.07763    0.34773    2.38862    5.63151    5.64926

== END DATASET(S) ==============================================================
================================================================================
  
 -outvars: echo values of variables after computation  --------
            acell      1.1448527831E+01  1.1448527831E+01  1.1618603183E+01 Bohr
              amu      1.14820000E+02  7.49215900E+01
           diemac      1.20000000E+01
             ecut      4.00000000E+00 Hartree
           enunit1          0
           enunit2          1
           etotal1    -1.0597818934E+01
            fcart1    -2.3498041912E-04 -2.3432109038E-04  5.4769802676E-04
                       2.3498041912E-04  2.3432109038E-04 -5.4769802676E-04
-          fftalg         112
           getden1          0
           getden2         -1
             iscf1          7
             iscf2         -2
           istwfk2       1    0    0    0    0    0    0    0    0    0
                         1    0    0    0    0    0    0    0    0    0
                         0    0    0    0    0    0    0    0    0    0
                         0    0    0    0    0    0    0    0    0    0
                       outvar_i_n : Printing only first  50 k-points.
           jdtset        1    2
              kpt1    -1.25000000E-01 -2.50000000E-01  0.00000000E+00
                      -2.50000000E-01 -1.25000000E-01  0.00000000E+00
                      -1.25000000E-01 -1.25000000E-01  1.25000000E-01
                      -1.25000000E-01  5.00000000E-01  0.00000000E+00
                      -2.50000000E-01 -3.75000000E-01  0.00000000E+00
                      -1.25000000E-01 -3.75000000E-01  1.25000000E-01
                      -3.75000000E-01 -2.50000000E-01  0.00000000E+00
                      -2.50000000E-01 -2.50000000E-01  1.25000000E-01
                      -1.25000000E-01 -2.50000000E-01  2.50000000E-01
                       5.00000000E-01 -1.25000000E-01  0.00000000E+00
                      -3.75000000E-01 -1.25000000E-01  1.25000000E-01
                      -2.50000000E-01 -1.25000000E-01  2.50000000E-01
                      -1.25000000E-01 -1.25000000E-01  3.75000000E-01
                      -1.25000000E-01  2.50000000E-01  0.00000000E+00
                      -2.50000000E-01  3.75000000E-01  0.00000000E+00
                      -1.25000000E-01  3.75000000E-01  1.25000000E-01
                      -3.75000000E-01  5.00000000E-01  0.00000000E+00
                      -2.50000000E-01  5.00000000E-01  1.25000000E-01
                      -1.25000000E-01  5.00000000E-01  2.50000000E-01
                       5.00000000E-01 -3.75000000E-01  0.00000000E+00
                      -3.75000000E-01 -3.75000000E-01  1.25000000E-01
                      -2.50000000E-01 -3.75000000E-01  2.50000000E-01
                      -1.25000000E-01 -3.75000000E-01  3.75000000E-01
                       3.75000000E-01 -2.50000000E-01  0.00000000E+00
                       5.00000000E-01 -2.50000000E-01  1.25000000E-01
                      -3.75000000E-01 -2.50000000E-01  2.50000000E-01
                      -2.50000000E-01 -2.50000000E-01  3.75000000E-01
                      -1.25000000E-01 -2.50000000E-01  5.00000000E-01
                       2.50000000E-01 -1.25000000E-01  0.00000000E+00
                       3.75000000E-01 -1.25000000E-01  1.25000000E-01
                       5.00000000E-01 -1.25000000E-01  2.50000000E-01
                      -3.75000000E-01 -1.25000000E-01  3.75000000E-01
                      -2.50000000E-01 -1.25000000E-01  5.00000000E-01
                      -1.25000000E-01 -1.25000000E-01 -3.75000000E-01
                      -1.25000000E-01  0.00000000E+00  0.00000000E+00
                      -1.25000000E-01  1.25000000E-01  1.25000000E-01
                      -2.50000000E-01  2.50000000E-01  1.25000000E-01
                      -1.25000000E-01  2.50000000E-01  2.50000000E-01
                      -3.75000000E-01  3.75000000E-01  1.25000000E-01
                      -2.50000000E-01  3.75000000E-01  2.50000000E-01
                      -1.25000000E-01  3.75000000E-01  3.75000000E-01
                       5.00000000E-01  5.00000000E-01  1.25000000E-01
                      -3.75000000E-01  5.00000000E-01  2.50000000E-01
                      -2.50000000E-01  5.00000000E-01  3.75000000E-01
                      -1.25000000E-01  5.00000000E-01  5.00000000E-01
                       3.75000000E-01 -3.75000000E-01  1.25000000E-01
                       5.00000000E-01 -3.75000000E-01  2.50000000E-01
                      -3.75000000E-01 -3.75000000E-01  3.75000000E-01
                      -2.50000000E-01 -3.75000000E-01  5.00000000E-01
                      -1.25000000E-01 -3.75000000E-01 -3.75000000E-01
              kpt2     5.00000000E-01  0.00000000E+00  0.00000000E+00
                       4.50000000E-01  0.00000000E+00  0.00000000E+00
                       4.00000000E-01  0.00000000E+00  0.00000000E+00
                       3.50000000E-01  0.00000000E+00  0.00000000E+00
                       3.00000000E-01  0.00000000E+00  0.00000000E+00
                       2.50000000E-01  0.00000000E+00  0.00000000E+00
                       2.00000000E-01  0.00000000E+00  0.00000000E+00
                       1.50000000E-01  0.00000000E+00  0.00000000E+00
                       1.00000000E-01  0.00000000E+00  0.00000000E+00
                       5.00000000E-02  0.00000000E+00  0.00000000E+00
                       0.00000000E+00  0.00000000E+00  0.00000000E+00
                       2.08333333E-02  4.16666667E-02  6.25000000E-02
                       4.16666667E-02  8.33333333E-02  1.25000000E-01
                       6.25000000E-02  1.25000000E-01  1.87500000E-01
                       8.33333333E-02  1.66666667E-01  2.50000000E-01
                       1.04166667E-01  2.08333333E-01  3.12500000E-01
                       1.25000000E-01  2.50000000E-01  3.75000000E-01
                       1.45833333E-01  2.91666667E-01  4.37500000E-01
                       1.66666667E-01  3.33333333E-01  5.00000000E-01
                       1.87500000E-01  3.75000000E-01  5.62500000E-01
                       2.08333333E-01  4.16666667E-01  6.25000000E-01
                       2.29166667E-01  4.58333333E-01  6.87500000E-01
                       2.50000000E-01  5.00000000E-01  7.50000000E-01
                       2.57352941E-01  4.92647059E-01  7.50000000E-01
                       2.64705882E-01  4.85294118E-01  7.50000000E-01
                       2.72058824E-01  4.77941176E-01  7.50000000E-01
                       2.79411765E-01  4.70588235E-01  7.50000000E-01
                       2.86764706E-01  4.63235294E-01  7.50000000E-01
                       2.94117647E-01  4.55882353E-01  7.50000000E-01
                       3.01470588E-01  4.48529412E-01  7.50000000E-01
                       3.08823529E-01  4.41176471E-01  7.50000000E-01
                       3.16176471E-01  4.33823529E-01  7.50000000E-01
                       3.23529412E-01  4.26470588E-01  7.50000000E-01
                       3.30882353E-01  4.19117647E-01  7.50000000E-01
                       3.38235294E-01  4.11764706E-01  7.50000000E-01
                       3.45588235E-01  4.04411765E-01  7.50000000E-01
                       3.52941176E-01  3.97058824E-01  7.50000000E-01
                       3.60294118E-01  3.89705882E-01  7.50000000E-01
                       3.67647059E-01  3.82352941E-01  7.50000000E-01
                       3.75000000E-01  3.75000000E-01  7.50000000E-01
                       outvar_i_n : Printing only first  50 k-points.
           kptopt1          1
           kptopt2         -3
         kptrlatt        4   -4    4     -4    4    4     -4   -4    4
          kptrlen1     4.57966378E+01
          kptrlen2     3.00000000E+01
P           mkmem1        128
P           mkmem2         40
            natom           2
            nband1          5
            nband2          8
           nbdbuf1          0
           nbdbuf2          2
           ndtset           2
            ngfft          16      16      16
             nkpt1        128
             nkpt2         40
            nstep          20
             nsym           1
           ntypat           2
              occ      2.000000  2.000000  2.000000  2.000000  0.000000
            rprim      0.0000000000E+00  5.0000000000E-01  5.0000000000E-01
                       5.0000000000E-01  0.0000000000E+00  5.0000000000E-01
                       5.0000000000E-01  5.0000000000E-01  0.0000000000E+00
           shiftk      5.00000000E-01  5.00000000E-01  5.00000000E-01
          spgroup           1
           strten1     4.2252182267E-04  4.2252214115E-04  4.1078916219E-04
                      -8.9598343468E-06 -8.9583586332E-06  1.8659543633E-05
           toldfe1     1.00000000E-06 Hartree
           toldfe2     0.00000000E+00 Hartree
           tolwfr1     0.00000000E+00
           tolwfr2     1.00000000E-12
            typat      1  2
              wtk1       0.00781    0.00781    0.00781    0.00781    0.00781    0.00781
                         0.00781    0.00781    0.00781    0.00781    0.00781    0.00781
                         0.00781    0.00781    0.00781    0.00781    0.00781    0.00781
                         0.00781    0.00781    0.00781    0.00781    0.00781    0.00781
                         0.00781    0.00781    0.00781    0.00781    0.00781    0.00781
                         0.00781    0.00781    0.00781    0.00781    0.00781    0.00781
                         0.00781    0.00781    0.00781    0.00781    0.00781    0.00781
                         0.00781    0.00781    0.00781    0.00781    0.00781    0.00781
                         0.00781    0.00781
              wtk2       1.00000    1.00000    1.00000    1.00000    1.00000    1.00000
                         1.00000    1.00000    1.00000    1.00000    1.00000    1.00000
                         1.00000    1.00000    1.00000    1.00000    1.00000    1.00000
                         1.00000    1.00000    1.00000    1.00000    1.00000    1.00000
                         1.00000    1.00000    1.00000    1.00000    1.00000    1.00000
                         1.00000    1.00000    1.00000    1.00000    1.00000    1.00000
                         1.00000    1.00000    1.00000    1.00000
                       outvars : Printing only first  50 k-points.
           xangst      0.0000000000E+00  0.0000000000E+00  0.0000000000E+00
                       1.5258250000E+00  1.5258250000E+00  1.5145750000E+00
            xcart      0.0000000000E+00  0.0000000000E+00  0.0000000000E+00
                       2.8833913767E+00  2.8833913767E+00  2.8621319577E+00
             xred      0.0000000000E+00  0.0000000000E+00  0.0000000000E+00
                       2.5000000000E-01  2.5000000000E-01  2.5000000000E-01
            znucl       49.00000   33.00000

================================================================================


- Timing analysis has been suppressed with timopt=0



================================================================================

 Suggested references for the acknowledgment of ABINIT usage.

 The users of ABINIT have little formal obligations with respect to the ABINIT group
 (those specified in the GNU General Public License, http://www.gnu.org/copyleft/gpl.txt).
 However, it is common practice in the scientific literature,
 to acknowledge the efforts of people that have made the research possible.
 In this spirit, please find below suggested citations of work written by ABINIT developers,
 corresponding to implementations inside of ABINIT that you have used in the present run.
 Note also that it will be of great value to readers of publications presenting these results,
 to read papers enabling them to understand the theoretical formalism and details
 of the ABINIT implementation.
 For information on why they are suggested, see also https://docs.abinit.org/theory/acknowledgments.
-
- [1] The Abinit project: Impact, environment and recent developments.
- Computer Phys. Comm. 248, 107042 (2020).
- X.Gonze, B. Amadon, G. Antonius, F.Arnardi, L.Baguet, J.-M.Beuken,
- J.Bieder, F.Bottin, J.Bouchet, E.Bousquet, N.Brouwer, F.Bruneval,
- G.Brunin, T.Cavignac, J.-B. Charraud, Wei Chen, M.Cote, S.Cottenier,
- J.Denier, G.Geneste, Ph.Ghosez, M.Giantomassi, Y.Gillet, O.Gingras,
- D.R.Hamann, G.Hautier, Xu He, N.Helbig, N.Holzwarth, Y.Jia, F.Jollet,
- W.Lafargue-Dit-Hauret, K.Lejaeghere, M.A.L.Marques, A.Martin, C.Martins,
- H.P.C. Miranda, F.Naccarato, K. Persson, G.Petretto, V.Planes, Y.Pouillon,
- S.Prokhorenko, F.Ricci, G.-M.Rignanese, A.H.Romero, M.M.Schmitt, M.Torrent,
- M.J.van Setten, B.Van Troeye, M.J.Verstraete, G.Zerah and J.W.Zwanzig
- Comment: the fifth generic paper describing the ABINIT project.
- Note that a version of this paper, that is not formatted for Computer Phys. Comm. 
- is available at https://www.abinit.org/sites/default/files/ABINIT20.pdf .
- The licence allows the authors to put it on the Web.
- DOI and bibtex: see https://docs.abinit.org/theory/bibliography/#gonze2020
-
- [2] ABINIT: Overview, and focus on selected capabilities
- J. Chem. Phys. 152, 124102 (2020).
- A. Romero, D.C. Allan, B. Amadon, G. Antonius, T. Applencourt, L.Baguet,
- J.Bieder, F.Bottin, J.Bouchet, E.Bousquet, F.Bruneval,
- G.Brunin, D.Caliste, M.Cote,
- J.Denier, C. Dreyer, Ph.Ghosez, M.Giantomassi, Y.Gillet, O.Gingras,
- D.R.Hamann, G.Hautier, F.Jollet, G. Jomard,
- A.Martin, 
- H.P.C. Miranda, F.Naccarato, G.Petretto, N.A. Pike, V.Planes,
- S.Prokhorenko, T. Rangel, F.Ricci, G.-M.Rignanese, M.Royo, M.Stengel, M.Torrent,
- M.J.van Setten, B.Van Troeye, M.J.Verstraete, J.Wiktor, J.W.Zwanziger, and X.Gonze.
- Comment: a global overview of ABINIT, with focus on selected capabilities .
- Note that a version of this paper, that is not formatted for J. Chem. Phys 
- is available at https://www.abinit.org/sites/default/files/ABINIT20_JPC.pdf .
- The licence allows the authors to put it on the Web.
- DOI and bibtex: see https://docs.abinit.org/theory/bibliography/#romero2020
-
- [3] Recent developments in the ABINIT software package.
- Computer Phys. Comm. 205, 106 (2016).
- X.Gonze, F.Jollet, F.Abreu Araujo, D.Adams, B.Amadon, T.Applencourt,
- C.Audouze, J.-M.Beuken, J.Bieder, A.Bokhanchuk, E.Bousquet, F.Bruneval
- D.Caliste, M.Cote, F.Dahm, F.Da Pieve, M.Delaveau, M.Di Gennaro,
- B.Dorado, C.Espejo, G.Geneste, L.Genovese, A.Gerossier, M.Giantomassi,
- Y.Gillet, D.R.Hamann, L.He, G.Jomard, J.Laflamme Janssen, S.Le Roux,
- A.Levitt, A.Lherbier, F.Liu, I.Lukacevic, A.Martin, C.Martins,
- M.J.T.Oliveira, S.Ponce, Y.Pouillon, T.Rangel, G.-M.Rignanese,
- A.H.Romero, B.Rousseau, O.Rubel, A.A.Shukri, M.Stankovski, M.Torrent,
- M.J.Van Setten, B.Van Troeye, M.J.Verstraete, D.Waroquier, J.Wiktor,
- B.Xu, A.Zhou, J.W.Zwanziger.
- Comment: the fourth generic paper describing the ABINIT project.
- Note that a version of this paper, that is not formatted for Computer Phys. Comm. 
- is available at https://www.abinit.org/sites/default/files/ABINIT16.pdf .
- The licence allows the authors to put it on the Web.
- DOI and bibtex: see https://docs.abinit.org/theory/bibliography/#gonze2016
-
- And optionally:
-
- [4] ABINIT: First-principles approach of materials and nanosystem properties.
- Computer Phys. Comm. 180, 2582-2615 (2009).
- X. Gonze, B. Amadon, P.-M. Anglade, J.-M. Beuken, F. Bottin, P. Boulanger, F. Bruneval,
- D. Caliste, R. Caracas, M. Cote, T. Deutsch, L. Genovese, Ph. Ghosez, M. Giantomassi
- S. Goedecker, D.R. Hamann, P. Hermet, F. Jollet, G. Jomard, S. Leroux, M. Mancini, S. Mazevet,
- M.J.T. Oliveira, G. Onida, Y. Pouillon, T. Rangel, G.-M. Rignanese, D. Sangalli, R. Shaltaf,
- M. Torrent, M.J. Verstraete, G. Zerah, J.W. Zwanziger
- Comment: the third generic paper describing the ABINIT project.
- Note that a version of this paper, that is not formatted for Computer Phys. Comm. 
- is available at https://www.abinit.org/sites/default/files/ABINIT_CPC_v10.pdf .
- The licence allows the authors to put it on the Web.
- DOI and bibtex: see https://docs.abinit.org/theory/bibliography/#gonze2009
-
- Proc.   0 individual time (sec): cpu=         13.4  wall=         84.5

================================================================================

 Calculation completed.
.Delivered   1 WARNINGs and   5 COMMENTs to log file.
+Overall time at end (sec) : cpu=         13.4  wall=         84.5
